LAMMPS (4 Jan 2019)

# Define the finite deformation size. Try several values of this
# variable to verify that results do not depend on it.
variable up equal 1.0e-2

# Define the amount of random jiggle for atoms
# This prevents atoms from staying on saddle points
variable atomjiggle equal 1.0e-5

# real units, elastic constants in GPa
units          real
variable cfac equal 1.01325e-4
variable cunits string GPa

# Define minimization parameters
variable etol equal 1.0e-15
variable ftol equal 1.0e-15
variable maxiter equal 10000
variable maxeval equal 100000
variable dmax equal 1.0e-2

units           real
atom_style      full
boundary        p p p

pair_style      lj/cut 12.500
bond_style      harmonic
angle_style     cosine/squared
dihedral_style  charmm
improper_style  umbrella

dielectric      1.0
pair_modify     tail yes mix arithmetic
special_bonds   dreiding
box tilt        large
read_data       data.IRMOF-1
  orthogonal box = (0 0 0) to (25.832 25.832 25.832)
  1 by 2 by 2 MPI processor grid
  reading atoms ...
  424 atoms
  scanning bonds ...
  4 = max bonds/atom
  scanning angles ...
  6 = max angles/atom
  scanning dihedrals ...
  8 = max dihedrals/atom
  scanning impropers ...
  3 = max impropers/atom
  reading bonds ...
  512 bonds
  reading angles ...
  912 angles
  reading dihedrals ...
  960 dihedrals
  reading impropers ...
  576 impropers
  4 = max # of 1-2 neighbors
  12 = max # of 1-3 neighbors
  16 = max # of special neighbors

change_box all triclinic
  triclinic box = (0 0 0) to (25.832 25.832 25.832) with tilt (0 0 0)

# Setup output
thermo          1
thermo_style custom step temp pe press pxx pyy pzz pxy pxz pyz lx ly lz vol
thermo_modify norm no


#### Atom Groupings ####
group           fram     id   1:624
424 atoms in group fram
#### END Atom Groupings ####
# minimization
dump            MOF_xyzmov all xyz 3000 MOF_mov.xyz
dump_modify     MOF_xyzmov element Zn O O C H
min_style       cg
print           "MinStep,CellMinStep,AtomMinStep,FinalStep,Energy,EDiff" file MOF.min.csv screen no
variable        min_eval   equal 1.00e-10
variable        prev_E     equal 50000.00
variable        iter       loop 100000
label           loop_min
min_style       cg
fix             1 all box/relax aniso 0.0 vmax 0.01
minimize        1.0e-15 1.0e-15 10000 100000
WARNING: Using 'neigh_modify every 1 delay 0 check yes' setting during minimization (../min.cpp:168)
Neighbor list info ...
  update every 1 steps, delay 0 steps, check yes
  max neighbors/atom: 2000, page size: 100000
  master list distance cutoff = 14.5
  ghost atom cutoff = 14.5
  binsize = 7.25, bins = 4 4 4
  1 neighbor lists, perpetual/occasional/extra = 1 0 0
  (1) pair lj/cut, perpetual
      attributes: half, newton on
      pair build: half/bin/newton/tri
      stencil: half/bin/3d/newton/tri
      bin: standard
WARNING: Inconsistent image flags (../domain.cpp:782)
Per MPI rank memory allocation (min/avg/max) = 14.33 | 14.33 | 14.33 Mbytes
Step Temp PotEng Press Pxx Pyy Pzz Pxy Pxz Pyz Lx Ly Lz Volume 
       0            0    16754.575    34505.557    34505.557    34505.557    34505.557 -4.8353151e-13 1.1749001e-11 -3.1915865e-11       25.832       25.832       25.832    17237.493 
       1            0    16545.707    20018.068    20018.068    20018.068    20018.068 -1.248166e-12 -6.0872283e-12 -4.8127466e-11     26.09032     26.09032     26.09032    17759.806 
       2            0    16440.953    6327.4265    6327.4265    6327.4265    6327.4265 3.6378641e-12 6.208224e-12 3.7647646e-11     26.34864     26.34864     26.34864    18292.565 
       3            0    16424.146   -1182.6612   -1182.6612   -1182.6612   -1182.6612 -2.2848747e-13 6.9091498e-12 -1.4623207e-12    26.496664    26.496664    26.496664    18602.599 
       4            0    16091.765   -451.80523   -451.80523   -451.80523   -451.80523 8.9320316e-12 3.2607565e-11 9.5190863e-12    26.483653    26.483653    26.483653    18575.206 
       5            0    16089.225    2367.2547    2367.2547    2367.2547    2367.2547 2.094403e-11 3.2671582e-11 3.7338089e-11    26.428108    26.428108    26.428108    18458.577 
       6            0    16041.409    63.674017    63.674017    63.674017    63.674017 -3.6585167e-11 -3.9272528e-11 3.4798881e-11    26.472715    26.472715    26.472715    18552.202 
       7            0    16040.188   -1786.8661   -1786.8661   -1786.8661   -1786.8661 -6.186608e-11 2.7827693e-11 3.7074308e-11    26.508374    26.508374    26.508374    18627.273 
       8            0    16033.434   -46.576292    -46.57629   -46.576291   -46.576294 -5.1842474e-11 3.3550531e-11 7.2451388e-11    26.467783    26.467783    26.467783    18541.835 
       9            0    16032.692    1353.1405    1353.1405    1353.1405    1353.1405 -4.5104886e-11 2.2948299e-11 2.8751437e-11    26.439605    26.439605    26.439605    18482.677 
      10            0    16029.687   -52.049281   -52.049341   -52.049314   -52.049187 -3.839803e-11 4.5207857e-11 2.4646754e-11    26.464254    26.464254    26.464254     18534.42 
      11            0    16029.331    909.59065    909.59137    909.59105    909.58954 -9.8117387e-12 8.7463607e-11 2.6213841e-11    26.443682    26.443682    26.443682     18491.23 
      12            0    16028.037   -191.43977   -191.43802    -191.4388   -191.44248 2.3830555e-11 -3.8550515e-11 -4.9190948e-11    26.459306    26.459306    26.459306    18524.025 
      13            0    16027.759    620.67427    620.67098    620.67244    620.67939 1.2973186e-11 -5.2409948e-11 -1.1275802e-10    26.440888    26.440888    26.440887    18485.367 
      14            0    16026.995   -331.15351     -331.162   -331.15822   -331.14031 6.499796e-11 -8.6529587e-11 -1.1500923e-10    26.453105    26.453105    26.453104    18511.003 
      15            0    16026.642    537.36599    537.37209    537.36937     537.3565 1.0186744e-10 -1.3163901e-10 -1.3773533e-10    26.432214    26.432215    26.432215    18467.183 
      16            0    16025.967   -402.76394   -402.74531    -402.7536   -402.79292 1.9446864e-10 -2.0957219e-10 -1.3070378e-10    26.443629    26.443629    26.443631    18491.119 
      17            0    16025.565    489.45631    489.44944    489.45249      489.467 2.3103199e-10 -2.1024548e-10 -1.5081859e-10    26.421511    26.421511     26.42151    18444.757 
      18            0    16024.992   -391.47584   -391.50372   -391.49131   -391.43249 2.245019e-10 -2.0959536e-10 -1.7029532e-10    26.432242    26.432242     26.43224    18467.239 
      19            0    16024.647     425.5385     425.5447    425.54194    425.52887 2.4659607e-10 -2.4765508e-10 -1.3918044e-10    26.412078    26.412078    26.412079     18425.01 
      20            0    16024.232   -326.59834   -326.56365   -326.57909   -326.65229 2.3798661e-10 -2.6530135e-10 -1.5121882e-10    26.421711    26.421712    26.421715     18445.18 
      21            0    16024.001    353.25658    353.25023    353.25305    353.26645 2.236485e-10 -2.5753943e-10 -1.5377375e-10    26.405339    26.405339    26.405339    18410.909 
      22            0    16023.729   -255.53043   -255.57147   -255.55321   -255.46661 1.9085374e-10 -1.8864735e-10 -1.8622635e-10    26.413628    26.413627    26.413624     18428.25 
      23            0    16023.582    290.28171     290.2905    290.28659    290.26804 1.4959161e-10 -1.7614478e-10 -2.0669461e-10    26.400798    26.400798    26.400799    18401.414 
      24            0    16023.402   -202.44707   -202.39665   -202.41909   -202.52547 1.4169854e-10 -1.76567e-10 -1.380235e-10     26.40779    26.407791    26.407796    18416.042 
      25            0    16023.303    248.74727    248.73249    248.73907    248.77025 1.0319296e-10 -1.6652391e-10 -1.1745774e-10    26.397324    26.397324    26.397323    18394.148 
      26            0    16023.171   -171.58899   -171.65729    -171.6269   -171.48278 5.3616706e-11 -1.7177946e-10 -1.310263e-10    26.403348    26.403347    26.403341     18406.74 
      27            0    16023.093    233.14029    233.16825    233.15581    233.09682 6.1466844e-11 -1.8304355e-10 -1.3450135e-10    26.393925    26.393925    26.393928    18387.047 
      28            0    16022.976   -159.77365    -159.6679   -159.71495    -159.9381 2.9617668e-11 -1.4810872e-10 -8.465002e-11    26.399392    26.399394    26.399403    18398.482 
      29            0    16022.899    243.46916    243.41013    243.43639    243.56096 -2.8747495e-11 -9.7938895e-11 -1.5974889e-11    26.389837    26.389836    26.389831    18378.497 
      30            0    16022.774   -160.38482   -160.57299   -160.48927    -160.0922 -5.0827832e-11 -2.0680081e-11 3.7629604e-11    26.395085    26.395081    26.395065    18389.452 
      31            0    16022.683    278.07241    278.21303    278.15046    277.85375 -5.8564796e-11 -4.3499211e-11 5.9320291e-12    26.384358     26.38436    26.384372     18367.07 
      32            0    16022.531   -161.42975   -161.04916   -161.21851   -162.02158 -6.5923396e-11 1.6486125e-11 3.0030707e-11    26.389447    26.389454    26.389486    18377.719 
      33            0    16022.415    336.09281    335.69609    335.87261    336.70974 -9.9812982e-11 5.9762469e-12 6.1965972e-11    26.376948    26.376941    26.376907    18351.554 
      34            0    16022.221   -143.29859   -144.19873   -143.79821   -141.89882 -1.2106078e-11 1.2513748e-10 7.1219271e-11    26.381777    26.381761    26.381684    18361.592 
      35            0    16022.071    426.70811    428.25857    427.56869    424.29707 -3.1727971e-12 1.5272341e-10 8.2789477e-11    26.367138    26.367166    26.367297    18331.249 
      36            0    16021.823   -88.612601   -85.672798   -86.980861   -93.184144 -1.9562066e-11 2.3645241e-10 1.7229925e-10    26.371595    26.371647    26.371896    18340.662 
      37            0    16021.601     607.1916    594.18183    599.97068     627.4223 6.5372021e-11 4.3044174e-10 1.7366798e-10    26.354857    26.354625    26.353524     18304.43 
      38            0    16021.237   -18.232287   -38.622515    -29.54943    13.475084 1.7429666e-10 6.0120322e-10 1.765448e-10     26.36111    26.360747    26.359026    18316.849 
      39            0     16020.65    687.35421    1182.3051    962.21082   -82.453323 -3.153492e-10 -1.8399234e-09 -5.4326046e-10    26.324173    26.332968    26.374678    18282.758 
      40            0    16020.019   -387.68973    26.591174   -157.42388   -1032.2365 1.4487446e-09 3.047415e-09 5.9140725e-10    26.345266    26.352615    26.387521    18319.976 
      41            0    16019.794     13.12896   -9.5008698   0.74582877     48.14192 3.4635312e-09 1.4393455e-08 3.9649143e-09    26.353851    26.353447    26.351582    18301.564 
      42            0    16018.364   -727.85442   -753.25196   -762.93018   -667.38112 1.3896807e-07 4.4537244e-07 1.1955844e-07    26.361689     26.36207    26.358246    18317.629 
      43            0    16018.192   -1.5801006   -13.465104   -20.351221    29.076024 1.5338364e-07 4.8201329e-07 1.2808773e-07    26.346273    26.346542     26.34455    18286.626 
      44            0    16018.036    101.46115    316.72327     441.4544   -453.79423 1.0996577e-07 1.619748e-07 1.1945313e-08    26.336023    26.331051    26.366684    18284.113 
      45            0    16017.695   -336.31694   -288.85622   -261.74628   -458.34832 -4.5711196e-08 -1.7184009e-07 -5.2245303e-08    26.353167    26.352088    26.359925    18305.939 
      46            0    16017.654    8.4073619    8.2195124    7.8858461    9.1167272 -6.9102177e-08 -2.0031459e-07 -5.1589499e-08    26.348648    26.348663    26.348618    18292.571 
      47            0     16017.44   -180.35795   -383.26934   -475.31909    317.51459 -4.3052593e-08 1.374188e-08 4.2455777e-08    26.364258    26.367928    26.336304    18308.231 
      48            0    16017.309    206.78231    150.42355    124.95962    344.96377 -1.8550623e-08 -5.7727162e-08 -9.4648801e-09    26.353446     26.35446    26.345682    18297.889 
      49            0    16017.289   -14.889472   -7.6272416   -4.2747296   -32.766444 -1.1459812e-08 -8.7248456e-08 -3.3529851e-08    26.355639    26.355504    26.356642    18307.749 
      50            0    16016.849    265.30346    421.81588    483.28754   -109.19304 -6.4940662e-08 -2.8437822e-07 -1.161793e-07    26.352975    26.350516    26.374195    18314.623 
      51            0    16016.778   -112.86433   -54.104439   -31.116706   -253.37184 -7.4499922e-08 -2.2161074e-07 -6.475043e-08    26.365556    26.364637    26.373519    18332.716 
      52            0    16016.767    1.4002384   -5.6701452   -8.4900543    18.360915 -7.965063e-08 -1.7917535e-07 -2.9962959e-08     26.36624    26.366354     26.36527    18328.651 
      53            0    16016.728    246.58859    313.86999    341.98676     83.90903 -2.2334911e-08 -6.1251588e-08 -3.3471797e-08    26.359728    26.358604    26.368926    18321.278 
      54            0     16016.66   -76.763802    14.501938    52.413959    -297.2073 7.3345959e-08 2.207999e-07 2.0008024e-08    26.366991    26.365474    26.379473    18338.435 
      55            0     16016.64   -7.1521771   -9.5045426   -10.549832   -1.4021565 9.9766154e-08 3.5735987e-07 8.147011e-08    26.370038     26.37008    26.369727    18336.981 
      56            0     16016.64    22.881951    24.122989     24.70015    19.822713 1.0001854e-07 3.5671886e-07 8.0659062e-08    26.369328    26.369305    26.369512    18335.799 
      57            0    16016.635   -14.672972     27.68177    46.630789   -118.33147 1.117407e-07 3.7877287e-07 8.4603221e-08    26.368708    26.367949    26.374555    18337.931 
      58            0    16016.618   -13.102324   -13.132204   -13.238319   -12.936451 1.5697336e-07 5.5741587e-07 1.8032536e-07    26.371488     26.37149    26.371449    18340.167 
      59            0    16016.618   -13.102324   -13.132204   -13.238319   -12.936451 1.5697336e-07 5.5741587e-07 1.8032536e-07    26.371488     26.37149    26.371449    18340.167 
Loop time of 0.079704 on 4 procs for 59 steps with 424 atoms

99.9% CPU use with 4 MPI tasks x no OpenMP threads

Minimization stats:
  Stopping criterion = linesearch alpha is zero
  Energy initial, next-to-last, final = 
         16754.5753348       16016.618329       16016.618329
  Force two-norm initial, final = 15081.7 8.98321
  Force max component initial, final = 8674.39 3.46845
  Final line search alpha, max atom move = 8.47439e-11 2.9393e-10
  Iterations, force evaluations = 59 165

MPI task timing breakdown:
Section |  min time  |  avg time  |  max time  |%varavg| %total
---------------------------------------------------------------
Pair    | 0.046471   | 0.046964   | 0.047221   |   0.1 | 58.92
Bond    | 0.008672   | 0.0086962  | 0.008715   |   0.0 | 10.91
Neigh   | 0.00108    | 0.001081   | 0.001082   |   0.0 |  1.36
Comm    | 0.013096   | 0.013391   | 0.013924   |   0.3 | 16.80
Output  | 0.001161   | 0.0012565  | 0.001533   |   0.5 |  1.58
Modify  | 0          | 0          | 0          |   0.0 |  0.00
Other   |            | 0.008316   |            |       | 10.43

Nlocal:    106 ave 106 max 106 min
Histogram: 4 0 0 0 0 0 0 0 0 0
Nghost:    2066 ave 2066 max 2066 min
Histogram: 4 0 0 0 0 0 0 0 0 0
Neighs:    13530 ave 13533 max 13527 min
Histogram: 1 0 0 0 0 2 0 0 0 1

Total # of neighbors = 54120
Ave neighs/atom = 127.642
Ave special neighs/atom = 6.71698
Neighbor list builds = 1
Dangerous builds = 0
unfix           1
min_style       fire
variable        tempstp    equal $(step)
variable        tempstp    equal 59
variable        CellMinStep equal ${tempstp}
variable        CellMinStep equal 59
minimize        1.0e-15 1.0e-15 10000 100000
WARNING: Using 'neigh_modify every 1 delay 0 check yes' setting during minimization (../min.cpp:168)
WARNING: Inconsistent image flags (../domain.cpp:782)
Per MPI rank memory allocation (min/avg/max) = 13.2 | 13.2 | 13.2 Mbytes
Step Temp PotEng Press Pxx Pyy Pzz Pxy Pxz Pyz Lx Ly Lz Volume 
      59            0    16016.618   -13.102324   -13.132204   -13.238319   -12.936451 1.5694172e-07 5.5740026e-07 1.8033285e-07    26.371488     26.37149    26.371449    18340.167 
      60 0.00023116254    16016.618   -13.101598   -13.131465   -13.237583   -12.935746 1.570052e-07 5.5754118e-07 1.8036817e-07    26.371488     26.37149    26.371449    18340.167 
      61 0.0010130939    16016.618   -12.202023   -12.241517    -12.34494   -12.019612 1.6017579e-07 5.631468e-07 1.7988023e-07    26.371488     26.37149    26.371449    18340.167 
      62 0.0024301523    16016.616   -10.299027   -10.358771   -10.456467   -10.081845 1.6679817e-07 5.7500474e-07 1.788415e-07    26.371488     26.37149    26.371449    18340.167 
      63 0.0044814429    16016.615   -7.3134634   -7.4041933   -7.4930118   -7.0431853 1.7695262e-07 5.9357477e-07 1.7749386e-07    26.371488     26.37149    26.371449    18340.167 
      64 0.0070685723    16016.613   -3.1825674    -3.314016   -3.3909614   -2.8427249 1.9050091e-07 6.1906541e-07 1.7610341e-07    26.371488     26.37149    26.371449    18340.167 
      65 0.0099974148    16016.611    2.1486615    1.9692342    1.9066483     2.570102 2.0703835e-07 6.5106407e-07 1.7493008e-07    26.371488     26.37149    26.371449    18340.167 
      66  0.013160181    16016.609    9.3818247    9.1465672     9.101407    9.8974999 2.2766164e-07 6.9241415e-07 1.7437077e-07    26.371488     26.37149    26.371449    18340.167 
      67  0.015962613    16016.607    18.887603    18.596611    18.570278     19.49592 2.5128311e-07 7.4191716e-07 1.7516894e-07    26.371488     26.37149    26.371449    18340.167 
      68  0.017363837    16016.606    30.678791    30.346611    30.336976    31.352788 2.7495283e-07 7.9479748e-07 1.7812081e-07    26.371488     26.37149    26.371449    18340.167 
      69  0.017039158    16016.606    44.219699    43.873953     43.87523    44.909912 2.9544483e-07 8.4504863e-07 1.8403542e-07    26.371488     26.37149    26.371449    18340.167 
      70  0.016028538    16016.605    58.919704     58.59482     58.59899    59.565301 3.1068801e-07 8.8892225e-07 1.9360786e-07    26.371488     26.37149    26.371449    18340.167 
      71  0.015224778    16016.605    74.358865    74.091318    74.089337    74.895939 3.1981079e-07 9.2377657e-07 2.0679749e-07    26.371488     26.37149    26.371449    18340.167 
      72  0.014901842    16016.604    90.230259    90.053892    90.036828    90.600057 3.2256611e-07 9.4718456e-07 2.2290364e-07    26.371488     26.37149    26.371449    18340.167 
      73  0.014848115    16016.604    106.17199    106.11045    106.07121     106.3343 3.1990305e-07 9.559203e-07 2.3918975e-07    26.371488     26.37149    26.371449    18340.167 
      74  0.014446817    16016.604    121.53245    121.58364    121.52051     121.4932 3.1476118e-07 9.4664427e-07 2.4999832e-07    26.371488     26.37149    26.371449    18340.167 
      75 5.9575572e-05    16016.604    121.48723    121.53821    121.47516    121.44833 3.1951117e-07 9.5817786e-07 2.5279995e-07    26.371488     26.37149    26.371449    18340.167 
      76 0.00026762517    16016.604     121.0523    121.09387    121.03273     121.0303 3.2004931e-07 9.5318386e-07 2.490532e-07    26.371488     26.37149    26.371449    18340.167 
      77 0.00066712955    16016.603    120.15371    120.17566    120.11845    120.16703 3.2121236e-07 9.4349765e-07 2.4165488e-07    26.371488     26.37149    26.371449    18340.167 
      78 0.0012913051    16016.603    118.77207    118.76437    118.71304    118.83881 3.2277518e-07 9.2964705e-07 2.3130011e-07    26.371488     26.37149    26.371449    18340.167 
      79 0.0021586583    16016.602    116.89383    116.84776     116.8039    117.02982 3.2444248e-07 9.1252453e-07 2.1893822e-07    26.371488     26.37149    26.371449    18340.167 
      80 0.0032746856    16016.602    114.50902     114.4184    114.38295    114.72569 3.2580539e-07 8.9327761e-07 2.0573884e-07    26.371488     26.37149    26.371449    18340.167 
      81 0.0046984227    16016.601    111.32125      111.179    111.15281    111.63194 3.2636354e-07 8.7120228e-07 1.9208237e-07    26.371488     26.37149    26.371449    18340.167 
      82 0.0064244326      16016.6    107.15031    106.95523    106.93754    107.55816 3.2509704e-07 8.4747341e-07 1.8006436e-07    26.371488     26.37149    26.371449    18340.167 
      83 0.0083211141      16016.6    101.85075     101.6149    101.60167    102.33568 3.2037302e-07  8.24248e-07 1.731175e-07    26.371488     26.37149    26.371449    18340.167 
      84 0.0093210831      16016.6    95.621565    95.377698    95.360395    96.126602 3.1054686e-07 8.0376688e-07 1.7471166e-07    26.371488     26.37149    26.371449    18340.167 
      85 2.6676716e-06      16016.6     95.59228    95.348289     95.33099    96.097561 3.0918164e-07 8.0002092e-07 1.7379538e-07    26.371488     26.37149    26.371449    18340.167 
      86 1.1556067e-05      16016.6     95.53676    95.295036    95.277221    96.038024 3.0864495e-07 8.0072087e-07 1.7480204e-07    26.371488     26.37149    26.371449    18340.167 
      87 2.7415965e-05      16016.6    95.435618    95.198524    95.179657    95.928674 3.0764542e-07 8.0203382e-07 1.7681498e-07    26.371488     26.37149    26.371449    18340.167 
      88 5.0053948e-05      16016.6    95.302418    95.072257    95.051824    95.783172 3.0620215e-07 8.0392163e-07 1.7965268e-07    26.371488     26.37149    26.371449    18340.167 
      89 7.8284583e-05      16016.6    95.153686    94.932545    94.910088    95.618424 3.0443652e-07 8.0597795e-07 1.830828e-07    26.371488     26.37149    26.371449    18340.167 
      90 0.00011008919      16016.6     95.00799    94.797569    94.772724    95.453677 3.0236914e-07 8.081468e-07 1.8683799e-07    26.371488     26.37149    26.371449    18340.167 
      91 0.0001451521      16016.6     94.87244    94.675068    94.647349    95.294903 2.9993662e-07 8.1014049e-07 1.9105604e-07    26.371488     26.37149    26.371449    18340.167 
      92 0.00017978923      16016.6    94.773551    94.591108    94.560153    95.169393 2.9707488e-07 8.1157309e-07 1.9537635e-07    26.371488     26.37149    26.371449    18340.167 
      93 0.00020844724      16016.6    94.750171     94.58344    94.549162    95.117913 2.9383093e-07 8.1157878e-07 1.9916007e-07    26.371488     26.37149    26.371449    18340.167 
      94 0.00022428552      16016.6    94.852867    94.700841    94.663583    95.194177 2.902474e-07 8.0915498e-07 2.0178026e-07    26.371488     26.37149    26.371449    18340.167 
      95 0.00022679351      16016.6    95.144068    95.003713    94.964287    95.464204 2.8647696e-07 8.0328111e-07 2.0234871e-07    26.371488     26.37149    26.371449    18340.167 
      96 0.00022685436      16016.6    95.698653    95.564891     95.52458    96.006489 2.825809e-07 7.9269259e-07 1.9985738e-07    26.371488     26.37149    26.371449    18340.167 
      97 0.00023793023      16016.6      96.5913    96.456798    96.417414    96.899689 2.7852353e-07 7.755322e-07 1.9319633e-07    26.371488     26.37149    26.371449    18340.167 
      98 0.00026724983      16016.6    97.863526    97.718856      97.6827    98.189021 2.7388556e-07 7.4959329e-07 1.8151727e-07    26.371488     26.37149    26.371449    18340.167 
      99 0.00031009685      16016.6     99.46804    99.303349    99.272802    99.827969 2.6736323e-07 7.124785e-07 1.6486217e-07    26.371488     26.37149    26.371449    18340.167 
     100 0.00034580867      16016.6    101.18876    100.99844    100.97482    101.59302 2.5642701e-07 6.6256643e-07 1.4536433e-07    26.371488     26.37149    26.371449    18340.167 
     101 2.8787001e-06      16016.6    101.18768    100.99736    100.97374    101.59195 2.5633815e-07 6.6223831e-07 1.4525663e-07    26.371488     26.37149    26.371449    18340.167 
     102 1.2608936e-05      16016.6    100.98772    100.79993    100.77569    101.38753 2.5480038e-07 6.6144196e-07 1.4673099e-07    26.371488     26.37149    26.371449    18340.167 
     103 3.0640944e-05      16016.6    100.61308    100.43048    100.40496    101.00379 2.513097e-07 6.5909477e-07 1.4953943e-07    26.371488     26.37149    26.371449    18340.167 
     104 5.8064531e-05      16016.6    100.10486    99.929674    99.902326    100.48258  2.45612e-07 6.5373069e-07 1.5319456e-07    26.371488     26.37149    26.371449    18340.167 
     105 9.5671573e-05      16016.6    99.515938    99.349197     99.31975    99.878867 2.374526e-07 6.4367954e-07 1.5681353e-07    26.371488     26.37149    26.371449    18340.167 
     106 0.0001393096      16016.6    98.905329    98.746027     98.71471    99.255251 2.2717591e-07 6.274531e-07 1.5895107e-07    26.371488     26.37149    26.371449    18340.167 
     107 0.00017079722      16016.6    98.279476    98.125193    98.092582    98.620654 2.1447204e-07 6.0261242e-07 1.5834276e-07    26.371488     26.37149    26.371449    18340.167 
     108 2.925197e-07      16016.6     98.27894    98.124662     98.09205    98.620109 2.1441758e-07 6.0246033e-07 1.5830574e-07    26.371488     26.37149    26.371449    18340.167 
     109 1.2866629e-06      16016.6    98.314991    98.160155    98.127675    98.657142 2.143864e-07 6.0158014e-07 1.5776159e-07    26.371488     26.37149    26.371449    18340.167 
     110 3.2105985e-06      16016.6    98.383483    98.227474    98.195272    98.727703 2.1421247e-07 5.9965047e-07 1.5660568e-07    26.371488     26.37149    26.371449    18340.167 
     111 6.3126071e-06      16016.6     98.48035    98.322529    98.290759    98.827761 2.1386952e-07 5.9643843e-07 1.5489632e-07    26.371488     26.37149    26.371449    18340.167 
     112 1.082405e-05      16016.6    98.601314    98.441067    98.409879    98.952995 2.1328561e-07 5.9180704e-07 1.5250511e-07    26.371488     26.37149    26.371449    18340.167 
     113 1.6945178e-05      16016.6    98.742197    98.578991    98.548516    99.099086 2.1230753e-07 5.8554713e-07 1.4948046e-07    26.371488     26.37149    26.371449    18340.167 
     114 2.5094333e-05      16016.6    98.914979    98.748088    98.718509    99.278341 2.1073213e-07 5.7676589e-07 1.454771e-07    26.371488     26.37149    26.371449    18340.167 
     115 3.5298654e-05      16016.6    99.124244    98.953087    98.924556    99.495087 2.0829245e-07 5.6474921e-07 1.403781e-07    26.371488     26.37149    26.371449    18340.167 
     116 4.6928722e-05      16016.6    99.374666    99.199053    99.171636    99.753308 2.045481e-07 5.4870478e-07 1.3412474e-07    26.371488     26.37149    26.371449    18340.167 
     117 5.7538643e-05      16016.6    99.667946    99.488339    99.461951    100.05355 1.9918224e-07 5.2810941e-07 1.2687003e-07    26.371488     26.37149    26.371449    18340.167 
     118 6.3679696e-05      16016.6    99.996082    99.813622    99.788019    100.38661 1.9198788e-07 5.0324303e-07 1.1893764e-07    26.371488     26.37149    26.371449    18340.167 
     119 6.4686708e-05      16016.6    100.33819     100.1545    100.12932    100.73076 1.8303524e-07 4.7472389e-07 1.1076246e-07    26.371488     26.37149    26.371449    18340.167 
     120 6.2725666e-05      16016.6     100.6635    100.48053    100.45533    101.05463 1.7229642e-07 4.4323843e-07 1.0273259e-07    26.371488     26.37149    26.371449    18340.167 
     121 6.0577942e-05    16016.599    100.93741    100.75744     100.7317    101.32308  1.59711e-07 4.0903489e-07 9.5107159e-08    26.371488     26.37149    26.371449    18340.167 
     122 6.0591743e-05    16016.599    101.13159    100.95734    100.93044    101.50698 1.4482301e-07 3.7160393e-07 8.8108497e-08    26.371488     26.37149    26.371449    18340.167 
     123 6.3656146e-05    16016.599    101.23722    101.07168    101.04295    101.59701 1.2664842e-07 3.2871669e-07 8.1442764e-08    26.371488     26.37149    26.371449    18340.167 
     124 6.8451318e-05    16016.599     101.2837    101.12892    101.09799     101.6242 1.031726e-07 2.7423737e-07 7.3311583e-08    26.371488     26.37149    26.371449    18340.167 
     125 6.665042e-05    16016.599    101.32339     101.1767    101.14438    101.64909 7.2139896e-08 1.9789997e-07 5.9597535e-08    26.371488     26.37149    26.371449    18340.167 
     126 2.9883306e-07    16016.599    101.32318    101.17649    101.14417    101.64888 7.2200028e-08 1.980719e-07 5.9641122e-08    26.371488     26.37149    26.371449    18340.167 
     127 1.265717e-06    16016.599    101.38174    101.23391    101.20188    101.70945 7.1783439e-08 1.9571014e-07 5.8502237e-08    26.371488     26.37149    26.371449    18340.167 
     128 2.9124138e-06    16016.599    101.49296    101.34263    101.31121    101.82503 7.065268e-08 1.9010466e-07 5.5976834e-08    26.371488     26.37149    26.371449    18340.167 
     129 5.0888257e-06    16016.599     101.6482    101.49394    101.46352    101.98713 6.844581e-08 1.7985621e-07 5.1766919e-08    26.371488     26.37149    26.371449    18340.167 
     130 7.4896461e-06    16016.599    101.83824    101.67875    101.64967    102.18631 6.4230892e-08 1.6309037e-07 4.539769e-08    26.371488     26.37149    26.371449    18340.167 
     131 9.6341094e-06    16016.599    102.05968    101.89429     101.8668    102.41795 5.6176984e-08 1.3498244e-07 3.6017867e-08    26.371488     26.37149    26.371449    18340.167 
     132 1.2385486e-09    16016.599    102.05965    101.89426    101.86677    102.41792 5.6175646e-08 1.3497546e-07 3.601525e-08    26.371488     26.37149    26.371449    18340.167 
     133 5.2964503e-09    16016.599    102.05956    101.89419    101.86669    102.41778 5.6071373e-08 1.3476426e-07 3.5985629e-08    26.371488     26.37149    26.371449    18340.167 
     134 1.2600786e-08    16016.599     102.0595    101.89418    101.86667    102.41763 5.5943724e-08 1.3431122e-07 3.5927744e-08    26.371488     26.37149    26.371449    18340.167 
     135 2.3435045e-08    16016.599     102.0596    101.89436    101.86683     102.4176 5.5630635e-08 1.335448e-07 3.574296e-08    26.371488     26.37149    26.371449    18340.167 
     136 3.7917503e-08    16016.599    102.05998    101.89484     101.8673     102.4178 5.5232826e-08 1.324968e-07 3.5545423e-08    26.371488     26.37149    26.371449    18340.167 
     137 5.5995438e-08    16016.599    102.06076    101.89575    101.86818    102.41837 5.468157e-08 1.3119641e-07 3.526168e-08    26.371488     26.37149    26.371449    18340.167 
     138 7.9218661e-08    16016.599    102.06219    101.89733    101.86973     102.4195 5.3965898e-08 1.2934488e-07 3.4928038e-08    26.371488     26.37149    26.371449    18340.167 
     139 1.0808511e-07    16016.599     102.0645    101.89984     101.8722    102.42145 5.2991488e-08 1.2689124e-07 3.4434551e-08    26.371488     26.37149    26.371449    18340.167 
     140 1.4294179e-07    16016.599    102.06803    101.90361    101.87594    102.42454 5.1735317e-08 1.2367303e-07 3.3798432e-08    26.371488     26.37149    26.371449    18340.167 
     141 1.8384177e-07    16016.599    102.07323     101.9091    101.88138    102.42921 5.014473e-08 1.194916e-07 3.2852795e-08    26.371488     26.37149    26.371449    18340.167 
     142 2.3047088e-07    16016.599    102.08071    101.91691    101.88913    102.43609 4.8061869e-08 1.1419708e-07 3.1749874e-08    26.371488     26.37149    26.371449    18340.167 
     143 2.8216905e-07    16016.599    102.09128    101.92784    101.90001    102.44598 4.5516596e-08 1.0751136e-07 3.0275872e-08    26.371488     26.37149    26.371449    18340.167 
     144 3.3816272e-07    16016.599      102.106    101.94294    101.91506    102.45999 4.2353173e-08 9.9047129e-08 2.8380001e-08    26.371488     26.37149    26.371449    18340.167 
     145 3.9816623e-07    16016.599    102.12627    101.96358    101.93567    102.47957 3.8409754e-08 8.8537094e-08 2.5923445e-08    26.371488     26.37149    26.371449    18340.167 
     146 4.6344867e-07    16016.599    102.15389    101.99151    101.96359    102.50657 3.3594321e-08 7.5493431e-08 2.2898054e-08    26.371488     26.37149    26.371449    18340.167 
     147 5.380952e-07    16016.599    102.19106    102.02889      102.001     102.5433 2.772079e-08 5.9341104e-08 1.9008205e-08    26.371488     26.37149    26.371449    18340.167 
     148 6.2949345e-07    16016.599    102.24036    102.07822    102.05041    102.59244 2.0466528e-08 3.9364974e-08 1.4061837e-08    26.371488     26.37149    26.371449    18340.167 
     149 7.4684475e-07    16016.599    102.30433    102.14199    102.11435    102.65665 1.1547877e-08 1.4440679e-08 7.8373549e-09    26.371488     26.37149    26.371449    18340.167 
     150 8.9729028e-07    16016.599    102.38475    102.22193    102.19456    102.73776 4.7243532e-10 -1.6914688e-08 -8.5212228e-11    26.371488     26.37149    26.371449    18340.167 
     151 1.0790733e-06    16016.599    102.48125    102.31773    102.29071     102.8353 -1.3409691e-08 -5.6553258e-08 -1.027111e-08    26.371488     26.37149    26.371449    18340.167 
     152 1.2688338e-06    16016.599    102.58926    102.42504    102.39842    102.94433 -3.0810577e-08 -1.061875e-07 -2.3004403e-08    26.371488     26.37149    26.371449    18340.167 
     153 1.4176906e-06    16016.599    102.69789    102.53332    102.50706    103.05329 -5.2091961e-08 -1.6664901e-07 -3.8331662e-08    26.371488     26.37149    26.371449    18340.167 
     154 1.5126499e-06    16016.599    102.78938    102.62527    102.59921    103.14367 -7.7452173e-08 -2.3773403e-07 -5.594972e-08    26.371488     26.37149    26.371449    18340.167 
     155 1.6184071e-06    16016.599    102.84257    102.68019    102.65406    103.19345 -1.0753515e-07 -3.2096951e-07 -7.6145058e-08    26.371488     26.37149    26.371449    18340.167 
     156 1.7714845e-06    16016.599    102.84075    102.68181    102.65528    103.18516 -1.455595e-07 -4.2519958e-07 -1.0084995e-07    26.371488     26.37149    26.371449    18340.167 
     157 3.143818e-09    16016.599    102.84075    102.68181    102.65528    103.18515 -1.455577e-07 -4.2519419e-07 -1.0084854e-07    26.371488     26.37149    26.371449    18340.167 
     158 1.3832042e-08    16016.599    102.84737    102.68828    102.66179    103.19205 -1.4632767e-07 -4.2765888e-07 -1.0157623e-07    26.371488     26.37149    26.371449    18340.167 
     159 3.1872107e-08    16016.599     102.8592     102.6998     102.6734    103.20441 -1.4839808e-07 -4.3392868e-07 -1.0337524e-07    26.371488     26.37149    26.371449    18340.167 
     160 5.4703435e-08    16016.599     102.8736    102.71379    102.68753    103.21947 -1.5254951e-07 -4.463228e-07 -1.0679678e-07    26.371488     26.37149    26.371449    18340.167 
     161 7.9112087e-08    16016.599     102.8873    102.72717    102.70108    103.23366 -1.6028973e-07 -4.6887233e-07 -1.1273113e-07    26.371488     26.37149    26.371449    18340.167 
     162 2.4215075e-10    16016.599     102.8873    102.72717    102.70108    103.23366 -1.6029037e-07 -4.6887431e-07 -1.1273168e-07    26.371488     26.37149    26.371449    18340.167 
     163 1.0470546e-09    16016.599    102.88603    102.72593    102.69984    103.23233 -1.6057015e-07 -4.6957054e-07 -1.1292353e-07    26.371488     26.37149    26.371449    18340.167 
     164 2.6120212e-09    16016.599    102.88361    102.72357    102.69747    103.22979 -1.6129127e-07 -4.7143397e-07 -1.1338804e-07    26.371488     26.37149    26.371449    18340.167 
     165 5.2068269e-09    16016.599    102.88019    102.72026    102.69415    103.22616 -1.6259629e-07 -4.7494098e-07 -1.1425192e-07    26.371488     26.37149    26.371449    18340.167 
     166 9.1725567e-09    16016.599    102.87593    102.71615    102.69003    103.22161 -1.6466446e-07 -4.8057368e-07 -1.1562161e-07    26.371488     26.37149    26.371449    18340.167 
     167 1.4930953e-08    16016.599    102.87101    102.71142     102.6853    103.21631 -1.6770993e-07 -4.8904084e-07 -1.1767684e-07    26.371488     26.37149    26.371449    18340.167 
     168 2.2923517e-08    16016.599    102.86506    102.70572     102.6796    103.20986 -1.724534e-07 -5.022418e-07 -1.2091168e-07    26.371488     26.37149    26.371449    18340.167 
     169 3.2048378e-08    16016.599    102.85805    102.69899     102.6729    103.20226 -1.7941318e-07 -5.2175159e-07 -1.2568936e-07    26.371488     26.37149    26.371449    18340.167 
     170 3.8171641e-08    16016.599    102.85022    102.69144    102.66541    103.19381 -1.8879476e-07 -5.4805687e-07 -1.3225483e-07    26.371488     26.37149    26.371449    18340.167 
     171 1.3222929e-11    16016.599    102.85022    102.69144    102.66541    103.19381 -1.8879488e-07 -5.4805729e-07 -1.3225499e-07    26.371488     26.37149    26.371449    18340.167 
     172 5.8749041e-11    16016.599    102.85036    102.69158    102.66555    103.19396 -1.8888211e-07 -5.4832885e-07 -1.3232972e-07    26.371488     26.37149    26.371449    18340.167 
     173 1.4690163e-10    16016.599    102.85063    102.69184    102.66581    103.19424 -1.8907109e-07 -5.4883363e-07 -1.3249467e-07    26.371488     26.37149    26.371449    18340.167 
     174 2.8806194e-10    16016.599    102.85099    102.69219    102.66617    103.19462 -1.8934339e-07 -5.4970544e-07 -1.3268859e-07    26.371488     26.37149    26.371449    18340.167 
     175 4.9098666e-10    16016.599    102.85143    102.69261     102.6666    103.19509 -1.8980381e-07 -5.5099224e-07 -1.3303854e-07    26.371488     26.37149    26.371449    18340.167 
     176 7.6192338e-10    16016.599    102.85193    102.69309    102.66709    103.19562 -1.9044246e-07 -5.528437e-07 -1.3355471e-07    26.371488     26.37149    26.371449    18340.167 
     177 1.1207991e-09    16016.599    102.85252    102.69365    102.66766    103.19624 -1.9137464e-07 -5.5549877e-07 -1.3421321e-07    26.371488     26.37149    26.371449    18340.167 
     178 1.5747853e-09    16016.599     102.8532    102.69431    102.66833    103.19696 -1.9268242e-07 -5.5925632e-07 -1.3522762e-07    26.371488     26.37149    26.371449    18340.167 
     179 2.1286762e-09    16016.599    102.85397    102.69505     102.6691    103.19776 -1.9444793e-07 -5.6438602e-07 -1.3652085e-07    26.371488     26.37149    26.371449    18340.167 
     180 2.7800991e-09    16016.599    102.85482    102.69588    102.66996    103.19863 -1.9690363e-07 -5.7142575e-07 -1.3835403e-07    26.371488     26.37149    26.371449    18340.167 
     181 3.5042008e-09    16016.599    102.85575    102.69679    102.67092    103.19955 -2.0022157e-07 -5.8085933e-07 -1.4081772e-07    26.371488     26.37149    26.371449    18340.167 
     182 4.2021992e-09    16016.599    102.85674    102.69778    102.67196    103.20047 -2.0459959e-07 -5.9344729e-07 -1.4399981e-07    26.371488     26.37149    26.371449    18340.167 
     183 4.6744843e-09    16016.599    102.85773    102.69882    102.67305    103.20132 -2.1020566e-07 -6.0937744e-07 -1.4803514e-07    26.371488     26.37149    26.371449    18340.167 
     184 4.8337137e-09    16016.599    102.85861    102.69979    102.67407    103.20197 -2.1691783e-07 -6.284422e-07 -1.5285489e-07    26.371488     26.37149    26.371449    18340.167 
     185 4.8298406e-09    16016.599     102.8592    102.70051    102.67486    103.20224 -2.2471537e-07 -6.5056944e-07 -1.584888e-07    26.371488     26.37149    26.371449    18340.167 
     186 4.8733849e-09    16016.599    102.85931    102.70081    102.67521     103.2019 -2.3369222e-07 -6.7590481e-07 -1.6489204e-07    26.371488     26.37149    26.371449    18340.167 
     187 5.110169e-09    16016.599    102.85879    102.70055    102.67501     103.2008 -2.440842e-07 -7.0513016e-07 -1.7228016e-07    26.371488     26.37149    26.371449    18340.167 
     188 5.5874817e-09    16016.599    102.85768    102.69979    102.67431    103.19893 -2.5648383e-07 -7.401907e-07 -1.81161e-07    26.371488     26.37149    26.371449    18340.167 
     189 6.2599431e-09    16016.599    102.85636    102.69892    102.67352    103.19664 -2.7253732e-07 -7.8546154e-07 -1.9263669e-07    26.371488     26.37149    26.371449    18340.167 
     190 4.619716e-12    16016.599    102.85636    102.69892    102.67352    103.19664 -2.725371e-07 -7.8546088e-07 -1.9263653e-07    26.371488     26.37149    26.371449    18340.167 
     191 2.0220504e-11    16016.599    102.85655    102.69911    102.67371    103.19684 -2.7264195e-07 -7.8586856e-07 -1.9275644e-07    26.371488     26.37149    26.371449    18340.167 
     192 4.9191146e-11    16016.599    102.85692    102.69947    102.67408    103.19721 -2.7302978e-07 -7.8695472e-07 -1.9308325e-07    26.371488     26.37149    26.371449    18340.167 
     193 9.3031956e-11    16016.599    102.85746        102.7    102.67462    103.19776 -2.7379098e-07 -7.8902731e-07 -1.9362501e-07    26.371488     26.37149    26.371449    18340.167 
     194 1.5204866e-10    16016.599    102.85815    102.70069    102.67532    103.19844 -2.7493141e-07 -7.9223603e-07 -1.9444334e-07    26.371488     26.37149    26.371449    18340.167 
     195 2.2510377e-10    16016.599    102.85896     102.7015    102.67616    103.19924 -2.7651139e-07 -7.9686217e-07 -1.9566012e-07    26.371488     26.37149    26.371449    18340.167 
     196 3.1108611e-10    16016.599    102.85997    102.70252     102.6772    103.20019 -2.7889346e-07 -8.0371145e-07 -1.9742155e-07    26.371488     26.37149    26.371449    18340.167 
     197 3.9769983e-10    16016.599    102.86115    102.70374    102.67846    103.20127 -2.8225969e-07 -8.1323065e-07 -1.9986024e-07    26.371488     26.37149    26.371449    18340.167 
     198 4.6903562e-10    16016.599    102.86246     102.7051    102.67986    103.20242 -2.8654005e-07 -8.253281e-07 -2.0299607e-07    26.371488     26.37149    26.371449    18340.167 
     199 5.2129947e-10    16016.599    102.86378    102.70651    102.68132    103.20352 -2.9169792e-07 -8.400015e-07 -2.0681772e-07    26.371488     26.37149    26.371449    18340.167 
     200 5.6536004e-10    16016.599    102.86499    102.70784    102.68271    103.20444 -2.9767374e-07 -8.5691948e-07 -2.1117878e-07    26.371488     26.37149    26.371449    18340.167 
     201 6.1813371e-10    16016.599    102.86595    102.70894    102.68386    103.20503 -3.0446681e-07 -8.7616729e-07 -2.1611184e-07    26.371488     26.37149    26.371449    18340.167 
     202 6.9595574e-10    16016.599    102.86651     102.7097    102.68468    103.20515 -3.1220374e-07 -8.9813837e-07 -2.2182011e-07    26.371488     26.37149    26.371449    18340.167 
     203 8.0507018e-10    16016.599    102.86659    102.71002    102.68507    103.20467 -3.2134652e-07 -9.2417511e-07 -2.2862862e-07    26.371488     26.37149    26.371449    18340.167 
     204 8.8884152e-10    16016.599    102.86619    102.70992    102.68505     103.2036 -3.3219695e-07 -9.5515423e-07 -2.3671193e-07    26.371488     26.37149    26.371449    18340.167 
     205 2.1745591e-12    16016.599    102.86619    102.70992    102.68505     103.2036 -3.3219691e-07 -9.5515412e-07 -2.367119e-07    26.371488     26.37149    26.371449    18340.167 
     206 9.7218409e-12    16016.599     102.8663    102.71003    102.68516    103.20372 -3.3229543e-07 -9.5540755e-07 -2.3675766e-07    26.371488     26.37149    26.371449    18340.167 
     207 2.3883505e-11    16016.599     102.8665    102.71022    102.68536    103.20392 -3.3254544e-07 -9.5617823e-07 -2.3700053e-07    26.371488     26.37149    26.371449    18340.167 
     208 4.5178167e-11    16016.599    102.86677    102.71049    102.68563    103.20418 -3.3298639e-07 -9.5755204e-07 -2.3738287e-07    26.371488     26.37149    26.371449    18340.167 
     209 7.3244012e-11    16016.599    102.86706    102.71078    102.68594    103.20447 -3.337021e-07 -9.5974591e-07 -2.3799914e-07    26.371488     26.37149    26.371449    18340.167 
     210 1.0659212e-10    16016.599    102.86736    102.71109    102.68626    103.20473 -3.3477734e-07 -9.6289151e-07 -2.3882305e-07    26.371488     26.37149    26.371449    18340.167 
     211 1.4251638e-10    16016.599    102.86765     102.7114     102.6866    103.20496 -3.3637745e-07 -9.6762724e-07 -2.4004582e-07    26.371488     26.37149    26.371449    18340.167 
Loop time of 0.0708567 on 4 procs for 152 steps with 424 atoms

99.8% CPU use with 4 MPI tasks x no OpenMP threads

Minimization stats:
  Stopping criterion = energy tolerance
  Energy initial, next-to-last, final = 
          16016.618329       16016.599481       16016.599481
  Force two-norm initial, final = 6.73365 0.00032822
  Force max component initial, final = 0.602129 2.6449e-05
  Final line search alpha, max atom move = 0 0
  Iterations, force evaluations = 152 152

MPI task timing breakdown:
Section |  min time  |  avg time  |  max time  |%varavg| %total
---------------------------------------------------------------
Pair    | 0.043297   | 0.04375    | 0.044135   |   0.2 | 61.74
Bond    | 0.008006   | 0.008024   | 0.008051   |   0.0 | 11.32
Neigh   | 0          | 0          | 0          |   0.0 |  0.00
Comm    | 0.012062   | 0.012458   | 0.012953   |   0.3 | 17.58
Output  | 0.003005   | 0.0032755  | 0.00404    |   0.8 |  4.62
Modify  | 0          | 0          | 0          |   0.0 |  0.00
Other   |            | 0.003349   |            |       |  4.73

Nlocal:    106 ave 106 max 106 min
Histogram: 4 0 0 0 0 0 0 0 0 0
Nghost:    2066 ave 2066 max 2066 min
Histogram: 4 0 0 0 0 0 0 0 0 0
Neighs:    14118 ave 14146 max 14090 min
Histogram: 1 0 0 1 0 0 1 0 0 1

Total # of neighbors = 56472
Ave neighs/atom = 133.189
Ave special neighs/atom = 6.71698
Neighbor list builds = 0
Dangerous builds = 0
variable        AtomMinStep equal ${tempstp}
variable        AtomMinStep equal 59
variable        temppe     equal $(pe)
variable        temppe     equal 16016.599481035300414
variable        min_E      equal abs(${prev_E}-${temppe})
variable        min_E      equal abs(50000-${temppe})
variable        min_E      equal abs(50000-16016.5994810353)
print           "${iter},${CellMinStep},${AtomMinStep},${AtomMinStep},$(pe),${min_E}" append MOF.min.csv screen no
if              "${min_E} < ${min_eval}" then "jump SELF break_min"
variable        prev_E     equal ${temppe}
variable        prev_E     equal 16016.5994810353
next            iter
jump            SELF loop_min
min_style       cg
fix             1 all box/relax aniso 0.0 vmax 0.01
minimize        1.0e-15 1.0e-15 10000 100000
WARNING: Using 'neigh_modify every 1 delay 0 check yes' setting during minimization (../min.cpp:168)
WARNING: Inconsistent image flags (../domain.cpp:782)
Per MPI rank memory allocation (min/avg/max) = 14.33 | 14.33 | 14.33 Mbytes
Step Temp PotEng Press Pxx Pyy Pzz Pxy Pxz Pyz Lx Ly Lz Volume 
     211 1.4251638e-10    16016.599    102.86765     102.7114     102.6866    103.20496 -3.363602e-07 -9.6765862e-07 -2.4005236e-07    26.371488     26.37149    26.371449    18340.167 
     212 1.4251638e-10    16016.595  -0.77232422  -0.85264868  -0.86539642  -0.59892756 -3.3619684e-07 -9.6723539e-07 -2.3995588e-07    26.373499    26.373501    26.373469     18344.37 
     213 1.4251638e-10    16016.594   -2.9849817    10.893347     13.09595   -32.944242 -3.5563807e-07 -1.0162223e-06 -2.5375821e-07    26.373495    26.373407     26.37525     18345.54 
     214 1.4251638e-10    16016.594    5.2759965    5.0444293    5.0075512    5.7760089 -3.6473785e-07 -1.0480052e-06 -2.6084655e-07    26.374149     26.37415    26.374126    18345.731 
     215 1.4251638e-10    16016.594   -2.1967156   -3.0644677   -3.2022321  -0.32344695 -3.6534513e-07 -1.0500483e-06 -2.6129222e-07    26.374334    26.374339     26.37423    18346.064 
     216 1.4251638e-10    16016.593   -6.3393236    5.4167841       7.2851   -31.719855 -3.7934101e-07 -1.0849856e-06 -2.7155458e-07    26.374152    26.374077    26.375648     18346.74 
     217 1.4251638e-10    16016.593    25.373097    30.980048    31.870562    13.268682 -4.1404809e-07 -1.1878522e-06 -2.9810941e-07    26.374394    26.374357    26.375116    18346.733 
     218 1.4251638e-10    16016.592   0.61158375  -0.70119879  -0.91025406    3.4462041 -4.2953133e-07 -1.2354017e-06 -3.1002092e-07    26.375425    26.375433    26.375272    18348.308 
     219 1.4251638e-10    16016.592   -3.1776065   -1.5374096   -1.2761543   -6.7192557 -4.2986419e-07 -1.235237e-06 -3.1029245e-07    26.375385    26.375374    26.375606    18348.471 
     220 1.4251638e-10    16016.592   -3.1776065   -1.5374096   -1.2761543   -6.7192557 -4.2986419e-07 -1.235237e-06 -3.1029245e-07    26.375385    26.375374    26.375606    18348.471 
Loop time of 0.030089 on 4 procs for 9 steps with 424 atoms

99.9% CPU use with 4 MPI tasks x no OpenMP threads

Minimization stats:
  Stopping criterion = linesearch alpha is zero
  Energy initial, next-to-last, final = 
          16016.599481      16016.5919236      16016.5919236
  Force two-norm initial, final = 47.6562 2.23213
  Force max component initial, final = 27.6045 1.79775
  Final line search alpha, max atom move = 1.7858e-09 3.21041e-09
  Iterations, force evaluations = 9 63

MPI task timing breakdown:
Section |  min time  |  avg time  |  max time  |%varavg| %total
---------------------------------------------------------------
Pair    | 0.018216   | 0.018324   | 0.018443   |   0.1 | 60.90
Bond    | 0.003339   | 0.0033475  | 0.003356   |   0.0 | 11.13
Neigh   | 0          | 0          | 0          |   0.0 |  0.00
Comm    | 0.004994   | 0.0051342  | 0.005259   |   0.1 | 17.06
Output  | 0.000159   | 0.000172   | 0.000209   |   0.0 |  0.57
Modify  | 0          | 0          | 0          |   0.0 |  0.00
Other   |            | 0.003111   |            |       | 10.34

Nlocal:    106 ave 106 max 106 min
Histogram: 4 0 0 0 0 0 0 0 0 0
Nghost:    2066 ave 2066 max 2066 min
Histogram: 4 0 0 0 0 0 0 0 0 0
Neighs:    14118 ave 14170 max 14066 min
Histogram: 1 0 0 1 0 0 1 0 0 1

Total # of neighbors = 56472
Ave neighs/atom = 133.189
Ave special neighs/atom = 6.71698
Neighbor list builds = 0
Dangerous builds = 0
unfix           1
min_style       fire
variable        tempstp    equal $(step)
variable        tempstp    equal 220
variable        CellMinStep equal ${tempstp}
variable        CellMinStep equal 220
minimize        1.0e-15 1.0e-15 10000 100000
WARNING: Using 'neigh_modify every 1 delay 0 check yes' setting during minimization (../min.cpp:168)
WARNING: Inconsistent image flags (../domain.cpp:782)
Per MPI rank memory allocation (min/avg/max) = 13.2 | 13.2 | 13.2 Mbytes
Step Temp PotEng Press Pxx Pyy Pzz Pxy Pxz Pyz Lx Ly Lz Volume 
     220            0    16016.592   -3.1776065   -1.5374096   -1.2761543   -6.7192557 -4.298624e-07 -1.2352389e-06 -3.1036928e-07    26.375385    26.375374    26.375606    18348.471 
     221 1.0899379e-05    16016.592   -3.1775723   -1.5373753     -1.27612   -6.7192215 -4.2986211e-07 -1.2352365e-06 -3.103677e-07    26.375385    26.375374    26.375606    18348.471 
     222 5.0796435e-05    16016.592     -2.90689   -1.2797261   -1.0205459   -6.4203979 -4.295806e-07 -1.2345717e-06 -3.1019111e-07    26.375385    26.375374    26.375606    18348.471 
     223 0.00013443364    16016.592   -2.4239926   -0.8263738  -0.57189797    -5.873706 -4.2902271e-07 -1.2333235e-06 -3.0985908e-07    26.375385    26.375374    26.375606    18348.471 
     224 0.0002773792    16016.592   -1.8007546  -0.25139608 -0.0046049315   -5.1462629 -4.2827494e-07 -1.2313903e-06 -3.094028e-07    26.375385    26.375374    26.375606    18348.471 
     225 0.0004899958    16016.592   -1.1151735   0.36688947   0.60296466   -4.3153746 -4.2728499e-07 -1.2288853e-06 -3.0874528e-07    26.375385    26.375374    26.375606    18348.471 
     226 0.00076692446    16016.592   -0.4412835   0.95678582    1.1794863   -3.4601226 -4.260521e-07 -1.2257846e-06 -3.0797286e-07    26.375385    26.375374    26.375606    18348.471 
     227 0.0010769214    16016.592   0.22104159    1.5144106    1.7204396   -2.5717255 -4.2455234e-07 -1.2216904e-06 -3.0696939e-07    26.375385    26.375374    26.375606    18348.471 
     228 0.0013392346    16016.592   0.81702066    1.9914135    2.1784995    -1.718851 -4.2262016e-07 -1.2166913e-06 -3.0577311e-07    26.375385    26.375374    26.375606    18348.471 
     229 0.0014778745    16016.591    1.2600024    2.3112342    2.4787137   -1.0099407 -4.2030775e-07 -1.2107661e-06 -3.0433843e-07    26.375385    26.375374    26.375606    18348.471 
     230 0.0014921946    16016.591    1.4143086    2.3487038    2.4975876  -0.60336558 -4.1775898e-07 -1.2039293e-06 -3.0276617e-07    26.375385    26.375374    26.375606    18348.471 
     231 0.0014448246    16016.591    1.1153449    1.9496409    2.0825993  -0.68620552 -4.1501526e-07 -1.1964103e-06 -3.0101076e-07    26.375385    26.375374    26.375606    18348.471 
     232 0.0013792794    16016.591   0.25187711     1.017892    1.1399994   -1.4022601 -4.122099e-07 -1.1885544e-06 -2.9924074e-07    26.375385    26.375374    26.375606    18348.471 
     233 0.0012364896    16016.591   -1.0926943   -0.3366171  -0.21605573   -2.7254102 -4.0964708e-07 -1.1811806e-06 -2.9765863e-07    26.375385    26.375374    26.375606    18348.471 
     234 6.4266741e-07    16016.591   -1.0965765  -0.34061089  -0.22006825   -2.7290504 -4.0967432e-07 -1.1812447e-06 -2.9767323e-07    26.375385    26.375374    26.375606    18348.471 
     235 2.8711363e-06    16016.591   -1.0290198  -0.26846015  -0.14718554   -2.6714136 -4.097479e-07 -1.1814351e-06 -2.977438e-07    26.375385    26.375374    26.375606    18348.471 
     236 7.0954994e-06    16016.591  -0.89485563  -0.12455699 -0.0017303674   -2.5582795 -4.0992435e-07 -1.1818831e-06 -2.9789914e-07    26.375385    26.375374    26.375606    18348.471 
     237 1.3577803e-05    16016.591  -0.69831496  0.087163414   0.21240945   -2.3945177 -4.1019734e-07 -1.1825647e-06 -2.9808412e-07    26.375385    26.375374    26.375606    18348.471 
     238 2.2339137e-05    16016.591  -0.44660832   0.35947571   0.48800637    -2.187307 -4.1047838e-07 -1.1834571e-06 -2.9826759e-07    26.375385    26.375374    26.375606    18348.471 
     239 3.3108066e-05    16016.591  -0.14944509   0.68230825   0.81493119   -1.9455747 -4.1083603e-07 -1.1845374e-06 -2.985129e-07    26.375385    26.375374    26.375606    18348.471 
     240 4.6080082e-05    16016.591    0.2147146    1.0794832    1.2173701   -1.6527095 -4.1130741e-07 -1.1858685e-06 -2.9886538e-07    26.375385    26.375374    26.375606    18348.471 
     241 6.0569066e-05    16016.591   0.64438085    1.5497226    1.6940791   -1.3106591 -4.1183233e-07 -1.1874649e-06 -2.9926539e-07    26.375385    26.375374    26.375606    18348.471 
     242 7.5508998e-05    16016.591     1.130608    2.0834588    2.2353916  -0.92702626 -4.1243602e-07 -1.1892647e-06 -2.997589e-07    26.375385    26.375374    26.375606    18348.471 
     243 8.9477678e-05    16016.591    1.6545942    2.6600019    2.8203174  -0.51653675 -4.1304742e-07 -1.1911685e-06 -3.0030054e-07    26.375385    26.375374    26.375606    18348.471 
     244 0.00010082646    16016.591    2.1863349    3.2456621    3.4145797  -0.10123699 -4.135927e-07 -1.1930075e-06 -3.0090249e-07    26.375385    26.375374    26.375606    18348.471 
     245 0.00010759612    16016.591    2.6852782    3.7936888     3.970441   0.29170487 -4.1398065e-07 -1.1944693e-06 -3.0137615e-07    26.375385    26.375374    26.375606    18348.471 
     246 0.00010692344    16016.591    3.1036356    4.2469861    4.4293237   0.63459715 -4.1408708e-07 -1.1951568e-06 -3.017296e-07    26.375385    26.375374    26.375606    18348.471 
     247 9.6069871e-05    16016.591    3.4011988    4.5557738    4.7399241    0.9078984 -4.1377301e-07 -1.1948493e-06 -3.0191241e-07    26.375385    26.375374    26.375606    18348.471 
     248 7.926964e-05    16016.591    3.5943746     4.734324    4.9161748    1.1326249 -4.1298804e-07 -1.1931656e-06 -3.0179414e-07    26.375385    26.375374    26.375606    18348.471 
     249 3.2938388e-07    16016.591    3.5941266    4.7340684    4.9159178    1.1323937 -4.130136e-07 -1.1932454e-06 -3.0181511e-07    26.375385    26.375374    26.375606    18348.471 
     250 1.5202905e-06    16016.591    3.6300028    4.7667041    4.9480382    1.1752662 -4.1287307e-07 -1.1929052e-06 -3.0169585e-07    26.375385    26.375374    26.375606    18348.471 
     251 3.8629905e-06    16016.591    3.6931406     4.822751    5.0029578    1.2537129 -4.1267168e-07 -1.1922442e-06 -3.0149281e-07    26.375385    26.375374    26.375606    18348.471 
     252 7.5369589e-06    16016.591    3.7715737    4.8898722    5.0682808    1.3565683 -4.1232661e-07 -1.1913417e-06 -3.0129901e-07    26.375385    26.375374    26.375606    18348.471 
     253 1.252168e-05    16016.591    3.8513793    4.9540941    5.1300258    1.4700178 -4.1193402e-07 -1.1901371e-06 -3.0095169e-07    26.375385    26.375374    26.375606    18348.471 
     254 1.8491933e-05    16016.591    3.9186328    5.0018717    5.1747084    1.5793182 -4.1147288e-07 -1.1887672e-06 -3.0063101e-07    26.375385    26.375374    26.375606    18348.471 
     255 2.4855491e-05    16016.591    3.9658207    5.0243599    5.1932722    1.6798301 -4.1084853e-07 -1.1870691e-06 -3.0027357e-07    26.375385    26.375374    26.375606    18348.471 
     256 3.0218548e-05    16016.591    3.9765338     5.005962    5.1702505    1.7533888 -4.100582e-07 -1.1849963e-06 -2.9983744e-07    26.375385    26.375374    26.375606    18348.471 
     257 3.3496938e-05    16016.591    3.9290487    4.9266959    5.0859379    1.7745123 -4.0914707e-07 -1.1825578e-06 -2.9931796e-07    26.375385    26.375374    26.375606    18348.471 
     258 3.5128788e-05    16016.591    3.7981814    4.7636966    4.9178392    1.7130084 -4.0805608e-07 -1.1798703e-06 -2.987649e-07    26.375385    26.375374    26.375606    18348.471 
     259 3.5952517e-05    16016.591    3.5689607    4.5052252    4.6547307    1.5469262 -4.068868e-07 -1.1770536e-06 -2.9823487e-07    26.375385    26.375374    26.375606    18348.471 
     260 3.4564851e-05    16016.591    3.2641123    4.1794592    4.3256604    1.2872174 -4.0568264e-07 -1.1744078e-06 -2.9784383e-07    26.375385    26.375374    26.375606    18348.471 
     261 2.8631362e-08    16016.591    3.2640038    4.1793417    4.3255413    1.2871285 -4.0570088e-07 -1.1744695e-06 -2.9786113e-07    26.375385    26.375374    26.375606    18348.471 
     262 1.2571244e-07    16016.591    3.2810507    4.1974949    4.3438706    1.3017867 -4.0571382e-07 -1.1744883e-06 -2.9784685e-07    26.375385    26.375374    26.375606    18348.471 
     263 3.0355748e-07    16016.591     3.315093     4.233865    4.3806115    1.3308025 -4.0570002e-07 -1.174555e-06 -2.9784158e-07    26.375385    26.375374    26.375606    18348.471 
     264 5.6635595e-07    16016.591    3.3652628    4.2876437    4.4349655    1.3731793 -4.0572086e-07 -1.1746283e-06 -2.9792446e-07    26.375385    26.375374    26.375606    18348.471 
     265 9.0849664e-07    16016.591    3.4299499    4.3572124    4.5053127    1.4273246 -4.0569914e-07 -1.1747652e-06 -2.9796142e-07    26.375385    26.375374    26.375606    18348.471 
     266 1.3144573e-06    16016.591     3.506923    4.4402545    4.5893232    1.4911913 -4.0577477e-07 -1.1749144e-06 -2.9796559e-07    26.375385    26.375374    26.375606    18348.471 
     267 1.7925925e-06    16016.591    3.6021488    4.5432788    4.6935925    1.5695752 -4.0580464e-07 -1.1750777e-06 -2.9800977e-07    26.375385    26.375374    26.375606    18348.471 
     268 2.3161584e-06    16016.591    3.7158507    4.6665597    4.8184035    1.6625889 -4.0580352e-07 -1.1751752e-06 -2.9803099e-07    26.375385    26.375374    26.375606    18348.471 
     269 2.8441319e-06    16016.591     3.846587     4.808479    4.9621107    1.7691712 -4.0575047e-07 -1.1752008e-06 -2.980929e-07    26.375385    26.375374    26.375606    18348.471 
     270 3.3191575e-06    16016.591    3.9905114    4.9646108    5.1201965    1.8867269 -4.0564926e-07 -1.1749984e-06 -2.98101e-07    26.375385    26.375374    26.375606    18348.471 
     271 3.6640481e-06    16016.591    4.1403924    5.1264755    5.2839835    2.0107183 -4.0537388e-07 -1.1743748e-06 -2.9808784e-07    26.375385    26.375374    26.375606    18348.471 
     272 3.7769544e-06    16016.591    4.2846707    5.2804822    5.4395587    2.1339712 -4.0479743e-07 -1.1730612e-06 -2.9792564e-07    26.375385    26.375374    26.375606    18348.471 
     273 3.6098488e-06    16016.591    4.4104109    5.4117496    5.5717303     2.247753 -4.0390893e-07 -1.1709091e-06 -2.9757443e-07    26.375385    26.375374    26.375606    18348.471 
     274 3.2938907e-06    16016.591    4.5111124    5.5127511    5.6728076    2.3477786 -4.0256231e-07 -1.167591e-06 -2.9700813e-07    26.375385    26.375374    26.375606    18348.471 
     275 9.6299401e-09    16016.591    4.5111021     5.512739    5.6727951    2.3477722 -4.0256925e-07 -1.1676137e-06 -2.9701446e-07    26.375385    26.375374    26.375606    18348.471 
     276 4.1684094e-08    16016.591    4.5110441    5.5118769    5.6718051    2.3494502 -4.0244313e-07 -1.1672981e-06 -2.9691914e-07    26.375385    26.375374    26.375606    18348.471 
     277 9.9738818e-08    16016.591    4.5103947    5.5095346    5.6691938    2.3524557 -4.0219554e-07 -1.1666732e-06 -2.9678635e-07    26.375385    26.375374    26.375606    18348.471 
     278 1.8509124e-07    16016.591    4.5084289    5.5049361     5.664177    2.3561736 -4.018919e-07 -1.1657233e-06 -2.9657265e-07    26.375385    26.375374    26.375606    18348.471 
     279  2.96465e-07    16016.591    4.5043071    5.4972273    5.6558984    2.3597954 -4.0149799e-07 -1.1645484e-06 -2.9624186e-07    26.375385    26.375374    26.375606    18348.471 
     280 4.3043662e-07    16016.591    4.4971783    5.4855819    5.6435359    2.3624171 -4.0103487e-07 -1.1630315e-06 -2.9591827e-07    26.375385    26.375374    26.375606    18348.471 
     281 5.9200927e-07    16016.591    4.4852176    5.4677015    5.6247161    2.3632351 -4.0036823e-07 -1.1611493e-06 -2.9546975e-07    26.375385    26.375374    26.375606    18348.471 
     282 7.7695818e-07    16016.591    4.4665779    5.4415782    5.5974058    2.3607498 -3.9958907e-07 -1.158719e-06 -2.9487146e-07    26.375385    26.375374    26.375606    18348.471 
     283 9.7921439e-07    16016.591    4.4392708    5.4051611    5.5595447    2.3531067 -3.9850318e-07 -1.1555231e-06 -2.9409684e-07    26.375385    26.375374    26.375606    18348.471 
     284 1.1865465e-06    16016.591     4.401864    5.3571795    5.5098888    2.3385238 -3.9715277e-07 -1.1514609e-06 -2.9312246e-07    26.375385    26.375374    26.375606    18348.471 
     285 1.3666188e-06    16016.591    4.3549027    5.2987834    5.4496855    2.3162393 -3.9540575e-07 -1.1462412e-06 -2.9183454e-07    26.375385    26.375374    26.375606    18348.471 
     286 1.4526882e-06    16016.591    4.3026702     5.235489    5.3846482    2.2878733 -3.9315724e-07 -1.1395784e-06 -2.9023593e-07    26.375385    26.375374    26.375606    18348.471 
     287 1.3758789e-06    16016.591     4.254065    5.1777628    5.3254939    2.2589383 -3.9033953e-07 -1.1312011e-06 -2.8824625e-07    26.375385    26.375374    26.375606    18348.471 
     288 2.5798726e-09    16016.591    4.2540607    5.1777574    5.3254883    2.2589364 -3.9034175e-07 -1.1312071e-06 -2.8824801e-07    26.375385    26.375374    26.375606    18348.471 
     289 1.1437724e-08    16016.591    4.2606463    5.1847621    5.3325599    2.2646169 -3.9025442e-07 -1.1309625e-06 -2.8817906e-07    26.375385    26.375374    26.375606    18348.471 
     290 2.7771213e-08    16016.591    4.2738107    5.1988022      5.34674    2.2758899 -3.901003e-07 -1.130519e-06 -2.8809433e-07    26.375385    26.375374    26.375606    18348.471 
     291 5.1893524e-08    16016.591    4.2931667    5.2194992    5.3676518     2.292349 -3.8988313e-07 -1.1297196e-06 -2.8789018e-07    26.375385    26.375374    26.375606    18348.471 
     292 8.3064785e-08    16016.591    4.3179718    5.2460816    5.3945193    2.3133146 -3.895657e-07 -1.1286361e-06 -2.8763031e-07    26.375385    26.375374    26.375606    18348.471 
     293 1.1951128e-07    16016.591    4.3471774    5.2774269    5.4262083    2.3378972 -3.8912523e-07 -1.1271509e-06 -2.8728489e-07    26.375385    26.375374    26.375606    18348.471 
     294 1.6106571e-07    16016.591    4.3827342     5.315604    5.4648071    2.3677914 -3.884759e-07 -1.125132e-06 -2.8669055e-07    26.375385    26.375374    26.375606    18348.471 
     295 2.0442811e-07    16016.591      4.42416    5.3600258    5.5097123    2.4027421 -3.8763129e-07 -1.1222418e-06 -2.8597244e-07    26.375385    26.375374    26.375606    18348.471 
     296 2.4541729e-07    16016.591    4.4700766    5.4090727    5.5592663    2.4418909 -3.8639651e-07 -1.1183636e-06 -2.8495304e-07    26.375385    26.375374    26.375606    18348.471 
     297 2.7928363e-07    16016.591     4.517959    5.4597982     5.610456    2.4836229 -3.8475448e-07 -1.1129955e-06 -2.8357652e-07    26.375385    26.375374    26.375606    18348.471 
     298 3.0074298e-07    16016.591    4.5640388    5.5078324    5.6588161    2.5254679 -3.8252512e-07 -1.1057954e-06 -2.8177426e-07    26.375385    26.375374    26.375606    18348.471 
     299 3.0444421e-07    16016.591    4.6038448    5.5480946    5.6991686    2.5642714 -3.7965574e-07 -1.0964486e-06 -2.7947367e-07    26.375385    26.375374    26.375606    18348.471 
     300 2.9101983e-07    16016.591    4.6340262     5.576873     5.727744    2.5974616 -3.7606926e-07 -1.0845849e-06 -2.7655614e-07    26.375385    26.375374    26.375606    18348.471 
     301 6.1629201e-10    16016.591    4.6340253    5.5768718    5.7277428    2.5974613 -3.7607221e-07 -1.084595e-06 -2.7655903e-07    26.375385    26.375374    26.375606    18348.471 
     302 2.5653485e-09    16016.591    4.6334812    5.5760951    5.7269291    2.5974193 -3.7594212e-07 -1.0842083e-06 -2.7646854e-07    26.375385    26.375374    26.375606    18348.471 
     303 5.9343769e-09    16016.591    4.6323464    5.5744756    5.7252326     2.597331 -3.7570472e-07 -1.0833819e-06 -2.7621866e-07    26.375385    26.375374    26.375606    18348.471 
     304 1.071527e-08    16016.591    4.6305528    5.5719327    5.7225709    2.5971547 -3.7534443e-07 -1.0821389e-06 -2.7585897e-07    26.375385    26.375374    26.375606    18348.471 
     305 1.6809345e-08    16016.591    4.6280196    5.5683805    5.7188571    2.5968214 -3.7484615e-07 -1.0805181e-06 -2.7539643e-07    26.375385    26.375374    26.375606    18348.471 
     306 2.4053352e-08    16016.591    4.6246664    5.5637397    5.7140123    2.5962473 -3.7422471e-07 -1.0784575e-06 -2.748754e-07    26.375385    26.375374    26.375606    18348.471 
     307 3.292188e-08    16016.591    4.6200046    5.5573749    5.7073781    2.5952608 -3.7336287e-07 -1.075667e-06 -2.7408252e-07    26.375385    26.375374    26.375606    18348.471 
     308 4.3364558e-08    16016.591    4.6136639    5.5488443    5.6985012    2.5936461 -3.7226095e-07 -1.0719968e-06 -2.7309204e-07    26.375385    26.375374    26.375606    18348.471 
     309 5.5261909e-08    16016.591     4.605245    5.5376835    5.6869074    2.5911442 -3.7076439e-07 -1.0671221e-06 -2.7179602e-07    26.375385    26.375374    26.375606    18348.471 
     310 6.8334915e-08    16016.591    4.5944253    5.5235314    5.6722299    2.5875145 -3.6881201e-07 -1.0607294e-06 -2.7013196e-07    26.375385    26.375374    26.375606    18348.471 
     311 8.1755263e-08    16016.591    4.5811848    5.5064014     5.654488    2.5826651 -3.6619761e-07 -1.0522251e-06 -2.6790132e-07    26.375385    26.375374    26.375606    18348.471 
     312 9.3435514e-08    16016.591    4.5661288    5.4870707    5.6344871    2.5768285 -3.6285928e-07 -1.0410291e-06 -2.650142e-07    26.375385    26.375374    26.375606    18348.471 
     313 1.0048148e-07    16016.591    4.5507538    5.4673687    5.6141101    2.5707827 -3.5857483e-07 -1.0266392e-06 -2.6130192e-07    26.375385    26.375374    26.375606    18348.471 
     314 1.0150859e-07    16016.591    4.5377114    5.4503478    5.5964732    2.5663132 -3.532039e-07 -1.0086255e-06 -2.5663254e-07    26.375385    26.375374    26.375606    18348.471 
     315 9.8276873e-08    16016.591    4.5312726    5.4406052    5.5862252    2.5669874 -3.4678732e-07 -9.8694486e-07 -2.510019e-07    26.375385    26.375374    26.375606    18348.471 
     316 9.6257944e-08    16016.591    4.5379631    5.4448365    5.5900881    2.5789646 -3.3935884e-07 -9.6147485e-07 -2.4432472e-07    26.375385    26.375374    26.375606    18348.471 
     317 1.0322589e-07    16016.591    4.5668348    5.4721256    5.6171509     2.611228 -3.3042912e-07 -9.3121281e-07 -2.3625222e-07    26.375385    26.375374    26.375606    18348.471 
     318 1.2038703e-07    16016.591    4.6263254    5.5306048    5.6754997    2.6728717 -3.1912069e-07 -8.9277778e-07 -2.2584689e-07    26.375385    26.375374    26.375606    18348.471 
     319 1.3194973e-07    16016.591    4.7127256    5.6155141    5.7602089    2.7624539 -3.039345e-07 -8.411563e-07 -2.1179395e-07    26.375385    26.375374    26.375606    18348.471 
     320 4.0476037e-09    16016.591    4.7127252    5.6155137    5.7602084    2.7624535 -3.0393649e-07 -8.4116337e-07 -2.1179589e-07    26.375385    26.375374    26.375606    18348.471 
     321 1.7393662e-08    16016.591    4.7005686    5.6029639    5.7475969    2.7511451 -3.0296554e-07 -8.3795456e-07 -2.1099911e-07    26.375385    26.375374    26.375606    18348.471 
     322 3.6949378e-08    16016.591    4.6776253    5.5788541    5.7233047    2.7307172 -3.0051021e-07 -8.2954365e-07 -2.0891366e-07    26.375385    26.375374    26.375606    18348.471 
     323 5.527237e-08    16016.591    4.6474943    5.5460079     5.690036     2.706439 -2.9523144e-07 -8.1122214e-07 -2.0420685e-07    26.375385    26.375374    26.375606    18348.471 
     324 2.2973448e-10    16016.591    4.6474941    5.5460078    5.6900358    2.7064388 -2.9523244e-07 -8.1122575e-07 -2.0420785e-07    26.375385    26.375374    26.375606    18348.471 
     325 1.0045171e-09    16016.591    4.6487754    5.5472239    5.6912418    2.7078606 -2.950367e-07 -8.1059166e-07 -2.0401344e-07    26.375385    26.375374    26.375606    18348.471 
     326 2.4362128e-09    16016.591    4.6511486    5.5494311    5.6934233    2.7105915 -2.9458473e-07 -8.0890211e-07 -2.0354083e-07    26.375385    26.375374    26.375606    18348.471 
     327 4.5889738e-09    16016.591    4.6543658    5.5523485    5.6962945    2.7144543 -2.9372462e-07 -8.0607675e-07 -2.0268731e-07    26.375385    26.375374    26.375606    18348.471 
     328 7.4799657e-09    16016.591    4.6581411    5.5556603    5.6995349    2.7192281 -2.9246974e-07 -8.0162939e-07 -2.0142295e-07    26.375385    26.375374    26.375606    18348.471 
     329 1.1057135e-08    16016.591    4.6621846    5.5590554    5.7028304     2.724668 -2.9067645e-07 -7.9523232e-07 -1.9966548e-07    26.375385    26.375374    26.375606    18348.471 
     330 1.5025024e-08    16016.591    4.6666441    5.5626087    5.7062447    2.7310788 -2.8804857e-07 -7.8582422e-07 -1.970382e-07    26.375385    26.375374    26.375606    18348.471 
     331 1.8154073e-08    16016.591     4.671313    5.5661454    5.7096081    2.7381856 -2.8446252e-07 -7.732493e-07 -1.9351971e-07    26.375385    26.375374    26.375606    18348.471 
     332 1.9614278e-08    16016.591    4.6757178    5.5692742    5.7125421    2.7453371 -2.8005436e-07 -7.5762592e-07 -1.8924486e-07    26.375385    26.375374    26.375606    18348.471 
     333 1.9950697e-08    16016.591    4.6790541    5.5712713    5.7143349    2.7515563 -2.7488885e-07 -7.3951483e-07 -1.8426911e-07    26.375385    26.375374    26.375606    18348.471 
     334 2.0318055e-08    16016.591    4.6802667     5.571139    5.7139979    2.7556633 -2.691062e-07 -7.1904521e-07 -1.7868005e-07    26.375385    26.375374    26.375606    18348.471 
     335 2.2116271e-08    16016.591    4.6782546    5.5678072    5.7104659    2.7564905 -2.6252426e-07 -6.9585852e-07 -1.7243667e-07    26.375385    26.375374    26.375606    18348.471 
     336 2.6402303e-08    16016.591    4.6721735     5.560433    5.7028965    2.7531911 -2.5466183e-07 -6.6858316e-07 -1.6508241e-07    26.375385    26.375374    26.375606    18348.471 
     337 3.3009757e-08    16016.591    4.6617911    5.5487216    5.6909859    2.7456658 -2.4473471e-07 -6.3397162e-07 -1.5578998e-07    26.375385    26.375374    26.375606    18348.471 
     338  3.76458e-08    16016.591    4.6479202    5.5333433    5.6753828    2.7350344 -2.3188694e-07 -5.8927634e-07 -1.4370643e-07    26.375385    26.375374    26.375606    18348.471 
     339 2.2052399e-10    16016.591    4.6479201    5.5333433    5.6753828    2.7350342 -2.3188779e-07 -5.8927946e-07 -1.437072e-07    26.375385    26.375374    26.375606    18348.471 
     340 9.6341931e-10    16016.591    4.6493955     5.534788    5.6768228    2.7365757 -2.3158362e-07 -5.881843e-07 -1.4344971e-07    26.375385    26.375374    26.375606    18348.471 
     341 2.2870215e-09    16016.591    4.6521236    5.5374308    5.6794527    2.7394872 -2.3082928e-07 -5.856255e-07 -1.4269036e-07    26.375385    26.375374    26.375606    18348.471 
     342 4.1462779e-09    16016.591    4.6557741    5.5409175    5.6829145    2.7434903 -2.2955714e-07 -5.809705e-07 -1.4133803e-07    26.375385    26.375374    26.375606    18348.471 
     343 6.4115877e-09    16016.591    4.6599446    5.5448203     5.686777    2.7482365 -2.2751311e-07 -5.7373458e-07 -1.3927592e-07    26.375385    26.375374    26.375606    18348.471 
     344 8.8025546e-09    16016.591    4.6642266    5.5487135    5.6906115    2.7533548 -2.2457541e-07 -5.6318253e-07 -1.3621728e-07    26.375385    26.375374    26.375606    18348.471 
     345 1.0620557e-08    16016.591    4.6686522    5.5526017    5.6944187    2.7589361 -2.2033362e-07 -5.4825381e-07 -1.319905e-07    26.375385    26.375374    26.375606    18348.471 
     346 2.0676693e-11    16016.591    4.6686522    5.5526017    5.6944187    2.7589361 -2.203333e-07 -5.4825261e-07 -1.3199011e-07    26.375385    26.375374    26.375606    18348.471 
     347 9.2616244e-11    16016.591    4.6683991    5.5523478    5.6941647    2.7586848 -2.2024598e-07 -5.4789136e-07 -1.3194142e-07    26.375385    26.375374    26.375606    18348.471 
     348 2.330135e-10    16016.591    4.6679216    5.5518638    5.6936797    2.7582214 -2.2005819e-07 -5.471509e-07 -1.3173364e-07    26.375385    26.375374    26.375606    18348.471 
     349 4.5878115e-10    16016.591    4.6672514    5.5511768    5.6929902    2.7575871 -2.1967042e-07 -5.4598544e-07 -1.314101e-07    26.375385    26.375374    26.375606    18348.471 
     350 7.8336104e-10    16016.591    4.6664218    5.5503161     5.692125    2.7568244 -2.1914816e-07 -5.4420169e-07 -1.3091557e-07    26.375385    26.375374    26.375606    18348.471 
     351 1.2142926e-09    16016.591    4.6654674    5.5493124     5.691114    2.7559758 -2.1849396e-07 -5.4187266e-07 -1.3024927e-07    26.375385    26.375374    26.375606    18348.471 
     352 1.7759341e-09    16016.591    4.6643179     5.548085     5.689875    2.7549938 -2.1755726e-07 -5.385813e-07 -1.293426e-07    26.375385    26.375374    26.375606    18348.471 
     353 2.4652483e-09    16016.591    4.6629619    5.5466139    5.6883867     2.753885 -2.1622917e-07 -5.3410634e-07 -1.2813523e-07    26.375385    26.375374    26.375606    18348.471 
     354 3.262128e-09    16016.591    4.6614001    5.5448903    5.6866389     2.752671 -2.1453415e-07 -5.2815321e-07 -1.2652846e-07    26.375385    26.375374    26.375606    18348.471 
     355 4.1193198e-09    16016.591    4.6596549    5.5429272    5.6846432    2.7513945 -2.1232585e-07 -5.205255e-07 -1.2446719e-07    26.375385    26.375374    26.375606    18348.471 
     356 4.9653443e-09    16016.591    4.6577844    5.5407749    5.6824486    2.7501298 -2.0964271e-07 -5.1100924e-07 -1.2191891e-07    26.375385    26.375374    26.375606    18348.471 
     357 5.7309096e-09    16016.591    4.6558988    5.5385394    5.6801605    2.7489966 -2.0633236e-07 -4.9954843e-07 -1.1880991e-07    26.375385    26.375374    26.375606    18348.471 
     358 6.3922414e-09    16016.591    4.6541748     5.536396    5.6779541    2.7481743 -2.0243018e-07 -4.859489e-07 -1.150899e-07    26.375385    26.375374    26.375606    18348.471 
     359 7.0053476e-09    16016.591    4.6528581    5.5345894    5.6760738    2.7479111 -1.9789438e-07 -4.7012571e-07 -1.1077778e-07    26.375385    26.375374    26.375606    18348.471 
     360 7.7170064e-09    16016.591    4.6522452    5.5334098    5.6748088    2.7485168 -1.9268914e-07 -4.5191848e-07 -1.0575364e-07    26.375385    26.375374    26.375606    18348.471 
     361 8.7338539e-09    16016.591    4.6526352    5.5331383    5.6744374      2.75033 -1.8667841e-07 -4.3086706e-07 -9.9913939e-08    26.375385    26.375374    26.375606    18348.471 
     362 1.0215439e-08    16016.591    4.6542467    5.5339586    5.6751384    2.7536431 -1.7955802e-07 -4.0595811e-07 -9.2980672e-08    26.375385    26.375374    26.375606    18348.471 
     363 1.2113142e-08    16016.591    4.6570874    5.5358342    5.6768682    2.7585599 -1.7093492e-07 -3.7570418e-07 -8.4593269e-08    26.375385    26.375374    26.375606    18348.471 
     364 1.3971804e-08    16016.591    4.6607433    5.5383281    5.6791867    2.7647152 -1.6049885e-07 -3.3902827e-07 -7.4404437e-08    26.375385    26.375374    26.375606    18348.471 
     365 1.5310384e-08    16016.591    4.6640479    5.5403069    5.6809655    2.7708712 -1.4813125e-07 -2.9581128e-07 -6.2377271e-08    26.375385    26.375374    26.375606    18348.471 
     366 1.6705682e-08    16016.591    4.6649333    5.5397515    5.6801931    2.7748552 -1.3382645e-07 -2.4596322e-07 -4.8541164e-08    26.375385    26.375374    26.375606    18348.471 
     367 1.9465308e-08    16016.591    4.6609392     5.534186    5.6743915    2.7742402 -1.1713894e-07 -1.8801569e-07 -3.2619029e-08    26.375385    26.375374    26.375606    18348.471 
     368 2.4124975e-08    16016.591     4.650514    5.5218497    5.6617685    2.7679237 -9.6547627e-08 -1.1664964e-07 -1.3067355e-08    26.375385    26.375374    26.375606    18348.471 
     369 2.6498303e-08    16016.591    4.6351677     5.504041    5.6435901     2.757872 -7.1122135e-08 -2.8497745e-08 1.106509e-08    26.375385    26.375374    26.375606    18348.471 
     370 6.4868473e-10    16016.591    4.6351676    5.5040409    5.6435901    2.7578719 -7.112264e-08 -2.849965e-08 1.1064791e-08    26.375385    26.375374    26.375606    18348.471 
     371 2.7781762e-09    16016.591    4.6393497    5.5081024    5.6476331    2.7623137 -7.0427874e-08 -2.5908053e-08 1.1849696e-08    26.375385    26.375374    26.375606    18348.471 
     372 6.0156873e-09    16016.591    4.6471417    5.5155612     5.655041    2.7708229 -6.8480642e-08 -1.8738971e-08 1.4042626e-08    26.375385    26.375374    26.375606    18348.471 
     373 9.358594e-09    16016.591    4.6572854    5.5250128    5.6643875    2.7824558 -6.4016537e-08 -2.8561845e-09 1.8709068e-08    26.375385    26.375374    26.375606    18348.471 
     374 1.1964602e-11    16016.591    4.6572854    5.5250128    5.6643875    2.7824557 -6.4016209e-08 -2.8550082e-09 1.8709441e-08    26.375385    26.375374    26.375606    18348.471 
     375 5.4218976e-11    16016.591    4.6570599    5.5247852    5.6641596     2.782235 -6.3877222e-08 -2.3968507e-09 1.880298e-08    26.375385    26.375374    26.375606    18348.471 
     376 1.3593583e-10    16016.591    4.6566381    5.5243528    5.6637256     2.781836 -6.3551384e-08 -1.2978183e-09 1.9091627e-08    26.375385    26.375374    26.375606    18348.471 
     377 2.6383379e-10    16016.591     4.656057     5.523747    5.6631162     2.781308 -6.3030628e-08 4.7350849e-10 1.9563518e-08    26.375385    26.375374    26.375606    18348.471 
     378 4.4019817e-10    16016.591    4.6553595    5.5230057    5.6623684    2.7807044 -6.2282829e-08 3.0691654e-09 2.0245814e-08    26.375385    26.375374    26.375606    18348.471 
[...]
    1338 1.5611345e-11    16016.847   -13.634789    -11.92554   -23.898471   -5.0803561   -183.74025  -0.01154723 0.0030118707    26.375643    26.375643    26.375646    18348.866 
    1339 1.5611345e-11    16016.847   -13.630541   -11.921957   -23.894749   -5.0749171   -183.73882 -0.011658742  0.003983021    26.375643    26.375643    26.375646    18348.866 
    1340 1.5611345e-11    16016.847   -13.630232   -11.920776   -23.894199   -5.0757224   -183.73739 -0.011743435 0.0044101579    26.375643    26.375643    26.375646    18348.866 
    1341 1.5611345e-11    16016.847   -13.632739   -11.922603   -23.896429   -5.0791861   -183.73841 -0.011666227 0.0045521847    26.375643    26.375643    26.375646    18348.866 
    1342 1.5611345e-11    16016.847   -13.636492   -11.927121   -23.901494   -5.0808591   -183.73693 -0.011429603 0.0045056677    26.375643    26.375643    26.375646    18348.866 
    1343 1.5611345e-11    16016.847   -13.639034   -11.929722   -23.905875   -5.0815048   -183.73771 -0.011140528 0.0041718614    26.375643    26.375643    26.375646    18348.866 
    1344 1.5611345e-11    16016.847   -13.639611   -11.931062   -23.909091   -5.0786797   -183.73488  -0.01092031 0.0038383778    26.375643    26.375643    26.375646    18348.866 
    1345 1.5611345e-11    16016.847   -13.638833   -11.929945   -23.908562   -5.0779909   -183.73552 -0.010756985 0.0035714328    26.375643    26.375643    26.375646    18348.866 
    1346 1.5611345e-11    16016.847   -13.636535   -11.926972   -23.906193   -5.0764397   -183.73709 -0.010653676 0.0033274722    26.375643    26.375643    26.375646    18348.866 
    1347 1.5611345e-11    16016.847   -13.633419   -11.924422   -23.904678   -5.0711577   -183.73667  -0.01066586 0.0030961159    26.375643    26.375643    26.375646    18348.866 
    1348 1.5611345e-11    16016.847    -13.63243   -11.923664   -23.904723   -5.0689016   -183.73703 -0.010686989 0.0029733534    26.375643    26.375643    26.375646    18348.866 
    1349 1.5611345e-11    16016.847   -13.633655   -11.923397   -23.904172   -5.0733967   -183.73716 -0.010739427 0.0030010488    26.375643    26.375643    26.375646    18348.866 
    1350 1.5611345e-11    16016.847   -13.635246   -11.925626   -23.907414   -5.0726995   -183.73588 -0.010806782 0.0031077123    26.375643    26.375643    26.375646    18348.866 
    1351 1.5611345e-11    16016.847   -13.635734   -11.926569   -23.908963   -5.0716702    -183.7334 -0.010888728 0.0032347028    26.375643    26.375643    26.375646    18348.866 
    1352 1.5611345e-11    16016.847   -13.635734   -11.925875   -23.907806   -5.0735222   -183.73758  -0.01092752 0.0035352255    26.375643    26.375643    26.375646    18348.866 
    1353 1.5611345e-11    16016.847   -13.635968    -11.92714   -23.908986    -5.071778     -183.735 -0.010885323 0.0037584249    26.375643    26.375643    26.375646    18348.866 
    1354 1.5611345e-11    16016.847   -13.635465    -11.92588   -23.907515   -5.0729996   -183.74078 -0.010943471 0.0039108874    26.375643    26.375643    26.375646    18348.866 
    1355 1.5611345e-11    16016.847   -13.634626    -11.92508   -23.906271   -5.0725282   -183.73932 -0.011001014 0.0039450861    26.375643    26.375643    26.375646    18348.866 
    1356 1.5611345e-11    16016.847   -13.635249   -11.927193   -23.907862   -5.0706919   -183.73833 -0.011074985 0.0039082853    26.375643    26.375643    26.375646    18348.866 
    1357 1.5611345e-11    16016.847   -13.636916   -11.927968    -23.90796   -5.0748208   -183.74101 -0.011213194 0.0037984152    26.375643    26.375643    26.375646    18348.866 
    1358 1.5611345e-11    16016.847   -13.636971   -11.927333   -23.906867   -5.0767129   -183.73693 -0.011286085 0.0037134178    26.375643    26.375643    26.375646    18348.866 
    1359 1.5611345e-11    16016.847   -13.636712   -11.927707   -23.906675   -5.0757546   -183.73675  -0.01140238 0.0035790722    26.375643    26.375643    26.375646    18348.866 
    1360 1.5611345e-11    16016.847   -13.634968   -11.925648   -23.903935   -5.0753224   -183.73878 -0.011384067 0.0035005932    26.375643    26.375643    26.375646    18348.866 
    1361 1.5611345e-11    16016.847    -13.63287   -11.923416   -23.901303   -5.0738894    -183.7419 -0.011367882 0.0034364613    26.375643    26.375643    26.375646    18348.866 
    1362 1.5611345e-11    16016.847   -13.632914   -11.923783   -23.901437   -5.0735235   -183.74131 -0.011347335 0.0034024076    26.375643    26.375643    26.375646    18348.866 
    1363 1.5611345e-11    16016.847   -13.634781   -11.925313   -23.902789   -5.0762412   -183.74215 -0.011242762 0.0034452216    26.375643    26.375643    26.375646    18348.866 
    1364 1.5611345e-11    16016.847   -13.635944   -11.927205   -23.904804   -5.0758232   -183.74232 -0.011133439 0.0035145332    26.375643    26.375643    26.375646    18348.866 
    1365 1.5611345e-11    16016.847   -13.636263   -11.927355    -23.90503   -5.0764023    -183.7407 -0.011085835 0.0035854976    26.375643    26.375643    26.375646    18348.866 
    1366 1.5611345e-11    16016.847   -13.636824   -11.927888   -23.905563   -5.0770208   -183.74017 -0.011110649 0.0036285954    26.375643    26.375643    26.375646    18348.866 
    1367 1.5611345e-11    16016.847    -13.63645   -11.927234   -23.905201   -5.0769155   -183.73948 -0.011142556 0.0036807232    26.375643    26.375643    26.375646    18348.866 
    1368 1.5611345e-11    16016.847   -13.635669   -11.927091   -23.905536   -5.0743808   -183.74051 -0.011166234 0.0037185251    26.375643    26.375643    26.375646    18348.866 
    1369 1.5611345e-11    16016.847    -13.63492    -11.92576   -23.904386   -5.0746154   -183.74053 -0.011191958 0.0037220946    26.375643    26.375643    26.375646    18348.866 
    1370 1.5611345e-11    16016.847    -13.63453   -11.925428   -23.904195   -5.0739667   -183.74148 -0.011177511 0.0036919871    26.375643    26.375643    26.375646    18348.866 
    1371 1.5611345e-11    16016.847    -13.63422   -11.924897   -23.904013   -5.0737488   -183.74224 -0.011091352 0.0036184299    26.375643    26.375643    26.375646    18348.866 
    1372 1.5611345e-11    16016.847   -13.634809   -11.925161   -23.904606   -5.0746588    -183.7427 -0.011003199 0.0035607125    26.375643    26.375643    26.375646    18348.866 
    1373 1.5611345e-11    16016.847   -13.634888   -11.925973   -23.905727   -5.0729635    -183.7416 -0.010947513 0.0035006392    26.375643    26.375643    26.375646    18348.866 
    1374 1.5611345e-11    16016.847   -13.635528    -11.92579   -23.905588   -5.0752053   -183.74079 -0.010924622 0.0034509021    26.375643    26.375643    26.375646    18348.866 
    1375 1.5611345e-11    16016.847   -13.636233   -11.926972   -23.906903   -5.0748248   -183.74024 -0.010915472 0.0034154447    26.375643    26.375643    26.375646    18348.866 
    1376 1.5611345e-11    16016.847   -13.635983   -11.926769   -23.906886   -5.0742934   -183.73981 -0.010942153 0.0034147476    26.375643    26.375643    26.375646    18348.866 
    1377 1.5611345e-11    16016.847   -13.635866   -11.927089   -23.907135   -5.0733746   -183.73949 -0.011003245 0.0034336337    26.375643    26.375643    26.375646    18348.866 
    1378 1.5611345e-11    16016.847   -13.635899   -11.926692    -23.90655   -5.0744529   -183.73864 -0.011111356  0.003487289    26.375643    26.375643    26.375646    18348.866 
    1379 1.5611345e-11    16016.847   -13.635178   -11.926132   -23.905988   -5.0734153   -183.73819 -0.011211309 0.0035773204    26.375643    26.375643    26.375646    18348.866 
    1380 1.5611345e-11    16016.847   -13.634913   -11.926039   -23.905666   -5.0730332   -183.73733 -0.011228234 0.0036190237    26.375643    26.375643    26.375646    18348.866 
    1381 1.5611345e-11    16016.847   -13.634941   -11.925866   -23.905293   -5.0736653   -183.73838  -0.01122044  0.003653962    26.375643    26.375643    26.375646    18348.866 
    1382 1.5611345e-11    16016.847   -13.634812   -11.925761   -23.905041    -5.073633   -183.73773   -0.0111628 0.0036674088    26.375643    26.375643    26.375646    18348.866 
    1383 1.5611345e-11    16016.847   -13.634771   -11.925218   -23.904193   -5.0749024   -183.73844 -0.011115177 0.0036681111    26.375643    26.375643    26.375646    18348.866 
    1384 1.5611345e-11    16016.847   -13.635311   -11.925991   -23.904754   -5.0751884    -183.7385 -0.011081913 0.0036496508    26.375643    26.375643    26.375646    18348.866 
Loop time of 0.154346 on 4 procs for 168 steps with 424 atoms

99.6% CPU use with 4 MPI tasks x no OpenMP threads

Minimization stats:
  Stopping criterion = energy tolerance
  Energy initial, next-to-last, final = 
         16020.8510971      16016.8472432      16016.8472432
  Force two-norm initial, final = 84.0383 0.00018062
  Force max component initial, final = 8.79107 1.77854e-05
  Final line search alpha, max atom move = 1 1.77854e-05
  Iterations, force evaluations = 168 336

MPI task timing breakdown:
Section |  min time  |  avg time  |  max time  |%varavg| %total
---------------------------------------------------------------
Pair    | 0.10138    | 0.10264    | 0.10336    |   0.2 | 66.50
Bond    | 0.017676   | 0.017741   | 0.017834   |   0.0 | 11.49
Neigh   | 0          | 0          | 0          |   0.0 |  0.00
Comm    | 0.024769   | 0.025272   | 0.026694   |   0.5 | 16.37
Output  | 0.003361   | 0.0036483  | 0.004434   |   0.8 |  2.36
Modify  | 0          | 0          | 0          |   0.0 |  0.00
Other   |            | 0.005045   |            |       |  3.27

Nlocal:    106 ave 106 max 106 min
Histogram: 4 0 0 0 0 0 0 0 0 0
Nghost:    2066 ave 2066 max 2066 min
Histogram: 4 0 0 0 0 0 0 0 0 0
Neighs:    14118 ave 14126 max 14110 min
Histogram: 1 0 0 0 0 2 0 0 0 1

Total # of neighbors = 56472
Ave neighs/atom = 133.189
Ave special neighs/atom = 6.71698
Neighbor list builds = 0
Dangerous builds = 0

# Obtain new stress tensor

variable tmp equal pe
variable e1 equal ${tmp}
variable e1 equal 16016.84724318
variable tmp equal press
variable p1 equal ${tmp}
variable p1 equal -13.6353109221726
variable tmp equal pxx
variable pxx1 equal ${tmp}
variable pxx1 equal -11.9259907589299
variable tmp equal pyy
variable pyy1 equal ${tmp}
variable pyy1 equal -23.9047535625808
variable tmp equal pzz
variable pzz1 equal ${tmp}
variable pzz1 equal -5.07518844500722
variable tmp equal pxy
variable pxy1 equal ${tmp}
variable pxy1 equal -183.738501387782
variable tmp equal pxz
variable pxz1 equal ${tmp}
variable pxz1 equal -0.0110819127205711
variable tmp equal pyz
variable pyz1 equal ${tmp}
variable pyz1 equal 0.0036496508048305

# Compute elastic constant from pressure tensor

variable C1pos equal ${d1}
variable C1pos equal 0.120858765189402
variable C2pos equal ${d2}
variable C2pos equal 0.242243895961864
variable C3pos equal ${d3}
variable C3pos equal 0.0512407092538837
variable C4pos equal ${d4}
variable C4pos equal -3.69822669073793e-05
variable C5pos equal ${d5}
variable C5pos equal 0.000112279808676824
variable C6pos equal ${d6}
variable C6pos equal 1.86173036326377

# Combine positive and negative

variable C1${dir} equal 0.5*(${C1neg}+${C1pos})
variable C16 equal 0.5*(${C1neg}+${C1pos})
variable C16 equal 0.5*(-0.120858564398957+${C1pos})
variable C16 equal 0.5*(-0.120858564398957+0.120858765189402)
variable C2${dir} equal 0.5*(${C2neg}+${C2pos})
variable C26 equal 0.5*(${C2neg}+${C2pos})
variable C26 equal 0.5*(-0.242245306128847+${C2pos})
variable C26 equal 0.5*(-0.242245306128847+0.242243895961864)
variable C3${dir} equal 0.5*(${C3neg}+${C3pos})
variable C36 equal 0.5*(${C3neg}+${C3pos})
variable C36 equal 0.5*(-0.051234702599745+${C3pos})
variable C36 equal 0.5*(-0.051234702599745+0.0512407092538837)
variable C4${dir} equal 0.5*(${C4neg}+${C4pos})
variable C46 equal 0.5*(${C4neg}+${C4pos})
variable C46 equal 0.5*(-3.49617941785489e-05+${C4pos})
variable C46 equal 0.5*(-3.49617941785489e-05+-3.69822669073793e-05)
variable C5${dir} equal 0.5*(${C5neg}+${C5pos})
variable C56 equal 0.5*(${C5neg}+${C5pos})
variable C56 equal 0.5*(0.0001102643061184+${C5pos})
variable C56 equal 0.5*(0.0001102643061184+0.000112279808676824)
variable C6${dir} equal 0.5*(${C6neg}+${C6pos})
variable C66 equal 0.5*(${C6neg}+${C6pos})
variable C66 equal 0.5*(1.86175745793653+${C6pos})
variable C66 equal 0.5*(1.86175745793653+1.86173036326377)

# Delete dir to make sure it is not reused

variable dir delete



# Output final values

variable C11all equal ${C11}
variable C11all equal 43.1840884750768
variable C22all equal ${C22}
variable C22all equal 43.1857586956934
variable C33all equal ${C33}
variable C33all equal 43.1853169018476

variable C12all equal 0.5*(${C12}+${C21})
variable C12all equal 0.5*(11.3532126548131+${C21})
variable C12all equal 0.5*(11.3532126548131+11.3531993985692)
variable C13all equal 0.5*(${C13}+${C31})
variable C13all equal 0.5*(11.3549707644039+${C31})
variable C13all equal 0.5*(11.3549707644039+11.3531364911886)
variable C23all equal 0.5*(${C23}+${C32})
variable C23all equal 0.5*(11.3550914391782+${C32})
variable C23all equal 0.5*(11.3550914391782+11.3532906255091)

variable C44all equal ${C44}
variable C44all equal 1.86184145843626
variable C55all equal ${C55}
variable C55all equal 1.86177976634933
variable C66all equal ${C66}
variable C66all equal 1.86174391060015

variable C14all equal 0.5*(${C14}+${C41})
variable C14all equal 0.5*(-4.32692048004876e-06+${C41})
variable C14all equal 0.5*(-4.32692048004876e-06+0.00279941740867422)
variable C15all equal 0.5*(${C15}+${C51})
variable C15all equal 0.5*(5.88666579995345e-08+${C51})
variable C15all equal 0.5*(5.88666579995345e-08+0.00286187958353943)
variable C16all equal 0.5*(${C16}+${C61})
variable C16all equal 0.5*(1.00395222503435e-07+${C61})
variable C16all equal 0.5*(1.00395222503435e-07+0.00190096263416342)

variable C24all equal 0.5*(${C24}+${C42})
variable C24all equal 0.5*(6.97526953800237e-06+${C42})
variable C24all equal 0.5*(6.97526953800237e-06+0.00333214000171155)
variable C25all equal 0.5*(${C25}+${C52})
variable C25all equal 0.5*(-4.87763159750035e-06+${C52})
variable C25all equal 0.5*(-4.87763159750035e-06+0.00219424066173643)
variable C26all equal 0.5*(${C26}+${C62})
variable C26all equal 0.5*(-7.05083491508995e-07+${C62})
variable C26all equal 0.5*(-7.05083491508995e-07+-0.000143756301086325)

variable C34all equal 0.5*(${C34}+${C43})
variable C34all equal 0.5*(9.5518289609936e-06+${C43})
variable C34all equal 0.5*(9.5518289609936e-06+0.00257115399081507)
variable C35all equal 0.5*(${C35}+${C53})
variable C35all equal 0.5*(2.79002055800226e-06+${C53})
variable C35all equal 0.5*(2.79002055800226e-06+0.00346863782603506)
variable C36all equal 0.5*(${C36}+${C63})
variable C36all equal 0.5*(3.00332706935219e-06+${C63})
variable C36all equal 0.5*(3.00332706935219e-06+0.00142022303642175)

variable C45all equal 0.5*(${C45}+${C54})
variable C45all equal 0.5*(-3.37633642142279e-05+${C54})
variable C45all equal 0.5*(-3.37633642142279e-05+-3.44863160016003e-05)
variable C46all equal 0.5*(${C46}+${C64})
variable C46all equal 0.5*(-3.59720305429641e-05+${C64})
variable C46all equal 0.5*(-3.59720305429641e-05+-3.61790591199224e-05)
variable C56all equal 0.5*(${C56}+${C65})
variable C56all equal 0.5*(0.000111272057397612+${C65})
variable C56all equal 0.5*(0.000111272057397612+0.000111922532782538)

# Average moduli for cubic crystals

variable C11cubic equal (${C11all}+${C22all}+${C33all})/3.0
variable C11cubic equal (43.1840884750768+${C22all}+${C33all})/3.0
variable C11cubic equal (43.1840884750768+43.1857586956934+${C33all})/3.0
variable C11cubic equal (43.1840884750768+43.1857586956934+43.1853169018476)/3.0
variable C12cubic equal (${C12all}+${C13all}+${C23all})/3.0
variable C12cubic equal (11.3532060266912+${C13all}+${C23all})/3.0
variable C12cubic equal (11.3532060266912+11.3540536277963+${C23all})/3.0
variable C12cubic equal (11.3532060266912+11.3540536277963+11.3541910323436)/3.0
variable C44cubic equal (${C44all}+${C55all}+${C66all})/3.0
variable C44cubic equal (1.86184145843626+${C55all}+${C66all})/3.0
variable C44cubic equal (1.86184145843626+1.86177976634933+${C66all})/3.0
variable C44cubic equal (1.86184145843626+1.86177976634933+1.86174391060015)/3.0

variable bulkmodulus equal (${C11cubic}+2*${C12cubic})/3.0
variable bulkmodulus equal (43.1850546908726+2*${C12cubic})/3.0
variable bulkmodulus equal (43.1850546908726+2*11.3538168956104)/3.0
variable shearmodulus1 equal ${C44cubic}
variable shearmodulus1 equal 1.86178837846191
variable shearmodulus2 equal (${C11cubic}-${C12cubic})/2.0
variable shearmodulus2 equal (43.1850546908726-${C12cubic})/2.0
variable shearmodulus2 equal (43.1850546908726-11.3538168956104)/2.0
variable poissonratio equal 1.0/(1.0+${C11cubic}/${C12cubic})
variable poissonratio equal 1.0/(1.0+43.1850546908726/${C12cubic})
variable poissonratio equal 1.0/(1.0+43.1850546908726/11.3538168956104)

print "========================================="
=========================================
print "Components of the Elastic Constant Tensor"
Components of the Elastic Constant Tensor
print "========================================="
=========================================

print "Elastic Constant C11all = ${C11all} ${cunits}"
Elastic Constant C11all = 43.1840884750768 GPa
print "Elastic Constant C22all = ${C22all} ${cunits}"
Elastic Constant C22all = 43.1857586956934 GPa
print "Elastic Constant C33all = ${C33all} ${cunits}"
Elastic Constant C33all = 43.1853169018476 GPa

print "Elastic Constant C12all = ${C12all} ${cunits}"
Elastic Constant C12all = 11.3532060266912 GPa
print "Elastic Constant C13all = ${C13all} ${cunits}"
Elastic Constant C13all = 11.3540536277963 GPa
print "Elastic Constant C23all = ${C23all} ${cunits}"
Elastic Constant C23all = 11.3541910323436 GPa

print "Elastic Constant C44all = ${C44all} ${cunits}"
Elastic Constant C44all = 1.86184145843626 GPa
print "Elastic Constant C55all = ${C55all} ${cunits}"
Elastic Constant C55all = 1.86177976634933 GPa
print "Elastic Constant C66all = ${C66all} ${cunits}"
Elastic Constant C66all = 1.86174391060015 GPa

print "Elastic Constant C14all = ${C14all} ${cunits}"
Elastic Constant C14all = 0.00139754524409709 GPa
print "Elastic Constant C15all = ${C15all} ${cunits}"
Elastic Constant C15all = 0.00143096922509871 GPa
print "Elastic Constant C16all = ${C16all} ${cunits}"
Elastic Constant C16all = 0.000950531514692962 GPa

print "Elastic Constant C24all = ${C24all} ${cunits}"
Elastic Constant C24all = 0.00166955763562478 GPa
print "Elastic Constant C25all = ${C25all} ${cunits}"
Elastic Constant C25all = 0.00109468151506946 GPa
print "Elastic Constant C26all = ${C26all} ${cunits}"
Elastic Constant C26all = -7.2230692288917e-05 GPa

print "Elastic Constant C34all = ${C34all} ${cunits}"
Elastic Constant C34all = 0.00129035290988803 GPa
print "Elastic Constant C35all = ${C35all} ${cunits}"
Elastic Constant C35all = 0.00173571392329653 GPa
print "Elastic Constant C36all = ${C36all} ${cunits}"
Elastic Constant C36all = 0.000711613181745551 GPa

print "Elastic Constant C45all = ${C45all} ${cunits}"
Elastic Constant C45all = -3.41248401079141e-05 GPa
print "Elastic Constant C46all = ${C46all} ${cunits}"
Elastic Constant C46all = -3.60755448314432e-05 GPa
print "Elastic Constant C56all = ${C56all} ${cunits}"
Elastic Constant C56all = 0.000111597295090075 GPa

print "========================================="
=========================================
print "Average properties for a cubic crystal"
Average properties for a cubic crystal
print "========================================="
=========================================

print "Bulk Modulus = ${bulkmodulus} ${cunits}"
Bulk Modulus = 21.9642294940311 GPa
print "Shear Modulus 1 = ${shearmodulus1} ${cunits}"
Shear Modulus 1 = 1.86178837846191 GPa
print "Shear Modulus 2 = ${shearmodulus2} ${cunits}"
Shear Modulus 2 = 15.9156188976311 GPa
print "Poisson Ratio = ${poissonratio}"
Poisson Ratio = 0.20817843430454


Total wall time: 0:00:02
